
     Program PWSCF v.6.1 starts on 11Jan2021 at 17:27:32 

     This program is part of the open-source Quantum ESPRESSO suite
     for quantum simulation of materials; please cite
         "P. Giannozzi et al., J. Phys.:Condens. Matter 21 395502 (2009);
          URL http://www.quantum-espresso.org", 
     in publications or presentations arising from this work. More details at
     http://www.quantum-espresso.org/quote

     Parallel version (MPI), running on     4 processors
     R & G space division:  proc/nbgrp/npool/nimage =       4
     Waiting for input...
     Reading input from standard input

     Current dimensions of program PWSCF are:
     Max number of different atomic species (ntypx) = 10
     Max number of k-points (npk) =  40000
     Max angular momentum in pseudopotentials (lmaxx) =  3

     Subspace diagonalization in iterative solution of the eigenvalue problem:
     a serial algorithm will be used

     Found symmetry operation: I + ( -0.5000  0.0000  0.0000)
     This is a supercell, fractional translations are disabled

     Parallelization info
     --------------------
     sticks:   dense  smooth     PW     G-vecs:    dense   smooth      PW
     Min         187     187     54                 8037     8037    1261
     Max         188     188     56                 8044     8044    1262
     Sum         749     749    221                32157    32157    5047



     bravais-lattice index     =            0
     lattice parameter (alat)  =      10.8223  a.u.
     unit-cell volume          =    2655.9321 (a.u.)^3
     number of atoms/cell      =            4
     number of atomic types    =            1
     number of electrons       =        11.98
     number of Kohn-Sham states=           10
     kinetic-energy cutoff     =      20.0000  Ry
     charge density cutoff     =      80.0000  Ry
     convergence threshold     =      1.0E-06
     mixing beta               =       0.3000
     number of iterations used =            8  plain     mixing
     Exchange-correlation      =  SLA  PW   PBE  PBE ( 1  4  3  4 0 0)

     Effective Screening Medium Method
     =================================
     Boundary Conditions: Vacuum-Slab-Metal
     total charge in unit cell        =   0.0200
     grid points for fit at edges     =        4 


     celldm(1)=  10.822273  celldm(2)=   0.000000  celldm(3)=   0.000000
     celldm(4)=   0.000000  celldm(5)=   0.000000  celldm(6)=   0.000000

     crystal axes: (cart. coord. in units of alat)
               a(1) = (   1.000000   0.000000   0.000000 )  
               a(2) = (   0.000000   1.000000   0.000000 )  
               a(3) = (   0.000000   0.000000   2.095374 )  

     reciprocal axes: (cart. coord. in units 2 pi/alat)
               b(1) = (  1.000000  0.000000  0.000000 )  
               b(2) = (  0.000000  1.000000  0.000000 )  
               b(3) = (  0.000000  0.000000  0.477242 )  


     PseudoPot. # 1 for Al read from file:
     /home1/gler/share/qe-6.1-rism/pseudo/Al.pbe-n-van.UPF
     MD5 check sum: b11ded24487aef5bc42d5c7a2e22a7b6
     Pseudo is Ultrasoft + core correction, Zval =  3.0
     Generated by new atomic code, or converted to UPF format
     Using radial grid of  893 points,  2 beta functions with: 
                l(1) =   0
                l(2) =   1
     Q(r) pseudized with  8 coefficients,  rinner =    0.900   0.900   0.900


     atomic species   valence    mass     pseudopotential
        Al             3.00    26.98154     Al( 1.00)

      8 Sym. Ops. (no inversion) found



   Cartesian axes

     site n.     atom                  positions (alat units)
         1           Al  tau(   1) = (   0.0000000   0.0000000   0.0000000  )
         2           Al  tau(   2) = (   0.5000000   0.0000000   0.0000000  )
         3           Al  tau(   3) = (   0.0000000   0.5000000   0.0000000  )
         4           Al  tau(   4) = (   0.5000000   0.5000000   0.0000000  )

     number of k points=     6  Methfessel-Paxton smearing, width (Ry)=  0.0300
                       cart. coord. in units 2pi/alat
        k(    1) = (   0.0833333   0.0833333   0.0000000), wk =   0.2222222
        k(    2) = (   0.0833333   0.2500000   0.0000000), wk =   0.4444444
        k(    3) = (   0.0833333   0.4166667   0.0000000), wk =   0.4444444
        k(    4) = (   0.2500000   0.2500000   0.0000000), wk =   0.2222222
        k(    5) = (   0.2500000   0.4166667   0.0000000), wk =   0.4444444
        k(    6) = (   0.4166667   0.4166667   0.0000000), wk =   0.2222222

     Dense  grid:    32157 G-vectors     FFT dimensions: (  32,  32,  72)

     Estimated max dynamical RAM per process >       7.08MB

     Estimated total allocated dynamical RAM >      28.32MB

     Check: negative/imaginary core charge=   -0.000012    0.000000

     Initial potential from superposition of free atoms
     Check: negative starting charge=   -0.000169

     starting charge   11.99014, renormalised to   11.98000

     negative rho (up, down):  1.684E-04 0.000E+00
     Starting wfc are   16 randomized atomic wfcs

     total cpu time spent up to now is        0.5 secs

     per-process dynamical memory:     6.6 Mb

     Self-consistent Calculation

     iteration #  1     ecut=    20.00 Ry     beta=0.30
     Davidson diagonalization with overlap
     ethr =  1.00E-02,  avg # of iterations =  2.8

     Threshold (ethr) on eigenvalues was too large:
     Diagonalizing with lowered threshold

     Davidson diagonalization with overlap
     ethr =  2.08E-04,  avg # of iterations =  7.3

     negative rho (up, down):  9.393E-05 0.000E+00

     total cpu time spent up to now is        1.2 secs

     total energy              =     -49.51517761 Ry
     Harris-Foulkes estimate   =     -49.53338142 Ry
     estimated scf accuracy    <       0.07333709 Ry

     iteration #  2     ecut=    20.00 Ry     beta=0.30
     Davidson diagonalization with overlap
     ethr =  6.12E-04,  avg # of iterations =  1.0

     negative rho (up, down):  3.621E-06 0.000E+00

     total cpu time spent up to now is        1.5 secs

     total energy              =     -49.50481645 Ry
     Harris-Foulkes estimate   =     -49.51693732 Ry
     estimated scf accuracy    <       0.02758888 Ry

     iteration #  3     ecut=    20.00 Ry     beta=0.30
     Davidson diagonalization with overlap
     ethr =  2.30E-04,  avg # of iterations =  1.0

     negative rho (up, down):  6.585E-07 0.000E+00

     total cpu time spent up to now is        1.7 secs

     total energy              =     -49.50798413 Ry
     Harris-Foulkes estimate   =     -49.50815790 Ry
     estimated scf accuracy    <       0.00056691 Ry

     iteration #  4     ecut=    20.00 Ry     beta=0.30
     Davidson diagonalization with overlap
     ethr =  4.73E-06,  avg # of iterations = 12.5

     negative rho (up, down):  1.986E-06 0.000E+00

     total cpu time spent up to now is        2.3 secs

     total energy              =     -49.51052453 Ry
     Harris-Foulkes estimate   =     -49.51019893 Ry
     estimated scf accuracy    <       0.00069372 Ry

     iteration #  5     ecut=    20.00 Ry     beta=0.30
     Davidson diagonalization with overlap
     ethr =  4.73E-06,  avg # of iterations =  5.7

     total cpu time spent up to now is        2.6 secs

     total energy              =     -49.50881804 Ry
     Harris-Foulkes estimate   =     -49.51217245 Ry
     estimated scf accuracy    <       0.00632979 Ry

     iteration #  6     ecut=    20.00 Ry     beta=0.30
     Davidson diagonalization with overlap
     ethr =  4.73E-06,  avg # of iterations =  4.7

     total cpu time spent up to now is        2.9 secs

     total energy              =     -49.50999773 Ry
     Harris-Foulkes estimate   =     -49.50998554 Ry
     estimated scf accuracy    <       0.00004958 Ry

     iteration #  7     ecut=    20.00 Ry     beta=0.30
     Davidson diagonalization with overlap
     ethr =  4.14E-07,  avg # of iterations =  7.8

     total cpu time spent up to now is        3.3 secs

     total energy              =     -49.51007146 Ry
     Harris-Foulkes estimate   =     -49.51006660 Ry
     estimated scf accuracy    <       0.00015352 Ry

     iteration #  8     ecut=    20.00 Ry     beta=0.30
     Davidson diagonalization with overlap
     ethr =  4.14E-07,  avg # of iterations =  1.0

     total cpu time spent up to now is        3.4 secs

     total energy              =     -49.51004149 Ry
     Harris-Foulkes estimate   =     -49.51007450 Ry
     estimated scf accuracy    <       0.00017532 Ry

     iteration #  9     ecut=    20.00 Ry     beta=0.30
     Davidson diagonalization with overlap
     ethr =  4.14E-07,  avg # of iterations =  2.0

     total cpu time spent up to now is        3.6 secs

     total energy              =     -49.51001371 Ry
     Harris-Foulkes estimate   =     -49.51004828 Ry
     estimated scf accuracy    <       0.00008393 Ry

     iteration # 10     ecut=    20.00 Ry     beta=0.30
     Davidson diagonalization with overlap
     ethr =  4.14E-07,  avg # of iterations =  3.3

     total cpu time spent up to now is        3.8 secs

     total energy              =     -49.51002515 Ry
     Harris-Foulkes estimate   =     -49.51002514 Ry
     estimated scf accuracy    <       0.00000337 Ry

     iteration # 11     ecut=    20.00 Ry     beta=0.30
     Davidson diagonalization with overlap
     ethr =  2.81E-08,  avg # of iterations =  7.2

     total cpu time spent up to now is        4.1 secs

     total energy              =     -49.51003208 Ry
     Harris-Foulkes estimate   =     -49.51003230 Ry
     estimated scf accuracy    <       0.00000957 Ry

     iteration # 12     ecut=    20.00 Ry     beta=0.30
     Davidson diagonalization with overlap
     ethr =  2.81E-08,  avg # of iterations =  1.0

     total cpu time spent up to now is        4.3 secs

     total energy              =     -49.51003079 Ry
     Harris-Foulkes estimate   =     -49.51003216 Ry
     estimated scf accuracy    <       0.00000962 Ry

     iteration # 13     ecut=    20.00 Ry     beta=0.30
     Davidson diagonalization with overlap
     ethr =  2.81E-08,  avg # of iterations =  1.0

     total cpu time spent up to now is        4.5 secs

     total energy              =     -49.51002734 Ry
     Harris-Foulkes estimate   =     -49.51003090 Ry
     estimated scf accuracy    <       0.00000685 Ry

     iteration # 14     ecut=    20.00 Ry     beta=0.30
     Davidson diagonalization with overlap
     ethr =  2.81E-08,  avg # of iterations =  4.2

     total cpu time spent up to now is        4.7 secs

     total energy              =     -49.51002932 Ry
     Harris-Foulkes estimate   =     -49.51003033 Ry
     estimated scf accuracy    <       0.00000131 Ry

     iteration # 15     ecut=    20.00 Ry     beta=0.30
     Davidson diagonalization with overlap
     ethr =  1.09E-08,  avg # of iterations =  3.5

     total cpu time spent up to now is        4.9 secs

     End of self-consistent calculation

          k = 0.0833 0.0833 0.0000 (  3999 PWs)   bands (ev):

   -11.8123  -8.2369  -8.2369  -6.5285  -6.5285  -5.7593  -4.7514  -3.8789
    -2.5843  -2.5264

          k = 0.0833 0.2500 0.0000 (  4011 PWs)   bands (ev):

   -11.5642  -9.3694  -7.9927  -6.3008  -5.8502  -5.5218  -4.9571  -4.3972
    -3.4554  -2.2956

          k = 0.0833 0.4167 0.0000 (  4016 PWs)   bands (ev):

   -11.0699 -10.3345  -7.5071  -6.7874  -5.8494  -5.1935  -5.0495  -4.3509
    -3.1222  -1.8377

          k = 0.2500 0.2500 0.0000 (  4007 PWs)   bands (ev):

   -11.3164  -9.1251  -9.1251  -6.9706  -5.2845  -4.7351  -4.7351  -3.4222
    -3.2215  -3.2215

          k = 0.2500 0.4167 0.0000 (  4019 PWs)   bands (ev):

   -10.8228 -10.0885  -8.6387  -7.9166  -4.8129  -4.3050  -4.1153  -3.7226
    -2.9226  -2.7560

          k = 0.4167 0.4167 0.0000 (  4005 PWs)   bands (ev):

   -10.3308  -9.5990  -9.5990  -8.8711  -4.3421  -3.6464  -3.6464  -2.9527
    -2.5748  -2.5110

     the Fermi energy is    -4.7127 ev

!    total energy              =     -49.51003002 Ry
     Harris-Foulkes estimate   =     -49.51002966 Ry
     estimated scf accuracy    <       0.00000006 Ry

     The total energy is the sum of the following terms:

     one-electron contribution =    -319.76955397 Ry
     hartree contribution      =     160.24129852 Ry
     xc contribution           =     -39.21360548 Ry
     ewald contribution        =     149.23211567 Ry
     smearing contrib. (-TS)   =      -0.00028476 Ry

     convergence has been achieved in  15 iterations

     Forces acting on atoms (cartesian axes, Ry/au):

     atom    1 type  1   force =     0.00000000    0.00000000    0.00007669
     atom    2 type  1   force =     0.00000000    0.00000000    0.00007886
     atom    3 type  1   force =     0.00000000    0.00000000    0.00007886
     atom    4 type  1   force =     0.00000000    0.00000000    0.00007852

     Total force =     0.000156     Total SCF correction =     0.000133
     SCF correction compared to forces is large: reduce conv_thr to get better values

     Writing output data file Al001_bc3_p002.save

     init_run     :      0.47s CPU      0.50s WALL (       1 calls)
     electrons    :      4.33s CPU      4.36s WALL (       1 calls)
     forces       :      0.18s CPU      0.19s WALL (       1 calls)

     Called by init_run:
     wfcinit      :      0.10s CPU      0.11s WALL (       1 calls)
     potinit      :      0.08s CPU      0.09s WALL (       1 calls)

     Called by electrons:
     c_bands      :      3.23s CPU      3.25s WALL (      16 calls)
     sum_band     :      0.58s CPU      0.59s WALL (      16 calls)
     v_of_rho     :      0.37s CPU      0.38s WALL (      16 calls)
     newd         :      0.10s CPU      0.10s WALL (      16 calls)
     mix_rho      :      0.06s CPU      0.06s WALL (      16 calls)

     Called by c_bands:
     init_us_2    :      0.08s CPU      0.07s WALL (     204 calls)
     cegterg      :      3.15s CPU      3.17s WALL (      96 calls)

     Called by sum_band:
     sum_band:bec :      0.00s CPU      0.00s WALL (      96 calls)
     addusdens    :      0.11s CPU      0.11s WALL (      16 calls)

     Called by *egterg:
     h_psi        :      2.54s CPU      2.56s WALL (     498 calls)
     s_psi        :      0.07s CPU      0.07s WALL (     498 calls)
     g_psi        :      0.04s CPU      0.03s WALL (     396 calls)
     cdiaghg      :      0.13s CPU      0.15s WALL (     486 calls)

     Called by h_psi:
     h_psi:pot    :      2.53s CPU      2.55s WALL (     498 calls)
     h_psi:calbec :      0.10s CPU      0.08s WALL (     498 calls)
     vloc_psi     :      2.37s CPU      2.39s WALL (     498 calls)
     add_vuspsi   :      0.06s CPU      0.07s WALL (     498 calls)

     General routines
     calbec       :      0.13s CPU      0.11s WALL (     618 calls)
     fft          :      0.13s CPU      0.14s WALL (     221 calls)
     fftw         :      2.43s CPU      2.45s WALL (    7540 calls)
     davcio       :      0.00s CPU      0.00s WALL (       6 calls)

     Parallel routines
     fft_scatter  :      0.57s CPU      0.58s WALL (    7761 calls)

     PWSCF        :     5.07s CPU         5.22s WALL


   This run was terminated on:  17:27:37  11Jan2021            

=------------------------------------------------------------------------------=
   JOB DONE.
=------------------------------------------------------------------------------=
