
     Program PWSCF v.6.1 starts on  4Feb2021 at 23:11:12 

     This program is part of the open-source Quantum ESPRESSO suite
     for quantum simulation of materials; please cite
         "P. Giannozzi et al., J. Phys.:Condens. Matter 21 395502 (2009);
          URL http://www.quantum-espresso.org", 
     in publications or presentations arising from this work. More details at
     http://www.quantum-espresso.org/quote

     Parallel version (MPI & OpenMP), running on       4 processor cores
     Number of MPI processes:                 4
     Threads/MPI process:                     1
     R & G space division:  proc/nbgrp/npool/nimage =       4
     Waiting for input...
     Reading input from standard input

     Current dimensions of program PWSCF are:
     Max number of different atomic species (ntypx) = 10
     Max number of k-points (npk) =  40000
     Max angular momentum in pseudopotentials (lmaxx) =  3
     Message from routine iosys:
     mixing_mode=plain is ignored, 'TF' is adopted
     Message from routine iosys:
     accurate eigenvalues are required for all states: diago_full_acc=.TRUE.

     Subspace diagonalization in iterative solution of the eigenvalue problem:
     a serial algorithm will be used

     Found symmetry operation: I + ( -0.5000  0.0000  0.0000)
     This is a supercell, fractional translations are disabled

     Parallelization info
     --------------------
     sticks:   dense  smooth     PW     G-vecs:    dense   smooth      PW
     Min         187     187     54                 8037     8037    1261
     Max         188     188     56                 8044     8044    1262
     Sum         749     749    221                32157    32157    5047



     bravais-lattice index     =            0
     lattice parameter (alat)  =      10.8223  a.u.
     unit-cell volume          =    2655.9321 (a.u.)^3
     number of atoms/cell      =            4
     number of atomic types    =            1
     number of electrons       =        12.00
     number of Kohn-Sham states=           10
     kinetic-energy cutoff     =      20.0000  Ry
     charge density cutoff     =      80.0000  Ry
     convergence threshold     =      1.0E-06
     mixing beta               =       0.3000
     number of iterations used =            8  TF        mixing
     Exchange-correlation      =  SLA  PW   PBE  PBE ( 1  4  3  4 0 0)

     Effective Screening Medium Method
     =================================
     Boundary Conditions: Metal-Slab-Metal
     total charge in unit cell        =   0.0000
     grid points for fit at edges     =        4 


     >>>>> Grand-Canonical SCF is activated <<<<<
     Initial Total Charge  =     0.000000 e
     Target Fermi Energy   =    -3.751000 eV
     Thr. of Fermi Energy  =     0.010000 eV
     Wave-shift of Kerker  =     0.400000 bohr^-1
     Wave-shift of Hartree =     1.500000 bohr^-1
     Mixing Rate of Fermi  =     0.050000

     celldm(1)=  10.822273  celldm(2)=   0.000000  celldm(3)=   0.000000
     celldm(4)=   0.000000  celldm(5)=   0.000000  celldm(6)=   0.000000

     crystal axes: (cart. coord. in units of alat)
               a(1) = (   1.000000   0.000000   0.000000 )  
               a(2) = (   0.000000   1.000000   0.000000 )  
               a(3) = (   0.000000   0.000000   2.095374 )  

     reciprocal axes: (cart. coord. in units 2 pi/alat)
               b(1) = (  1.000000  0.000000  0.000000 )  
               b(2) = (  0.000000  1.000000  0.000000 )  
               b(3) = (  0.000000  0.000000  0.477242 )  


     PseudoPot. # 1 for Al read from file:
     /Users/otani/Program/q-e/git-worktrees/qe-6.1-rism/pseudo/Al.pbe-n-van.UPF
     MD5 check sum: cbc97ad259b400557db688b98a6ada97
     Pseudo is Ultrasoft + core correction, Zval =  3.0
     Generated by new atomic code, or converted to UPF format
     Using radial grid of  893 points,  2 beta functions with: 
                l(1) =   0
                l(2) =   1
     Q(r) pseudized with  8 coefficients,  rinner =    0.900   0.900   0.900


     atomic species   valence    mass     pseudopotential
        Al             3.00    26.98154     Al( 1.00)

     16 Sym. Ops., with inversion, found



   Cartesian axes

     site n.     atom                  positions (alat units)
         1           Al  tau(   1) = (   0.0000000   0.0000000   0.0000000  )
         2           Al  tau(   2) = (   0.5000000   0.0000000   0.0000000  )
         3           Al  tau(   3) = (   0.0000000   0.5000000   0.0000000  )
         4           Al  tau(   4) = (   0.5000000   0.5000000   0.0000000  )

     number of k points=     6  Methfessel-Paxton smearing, width (Ry)=  0.0300
                       cart. coord. in units 2pi/alat
        k(    1) = (   0.0833333   0.0833333   0.0000000), wk =   0.2222222
        k(    2) = (   0.0833333   0.2500000   0.0000000), wk =   0.4444444
        k(    3) = (   0.0833333   0.4166667   0.0000000), wk =   0.4444444
        k(    4) = (   0.2500000   0.2500000   0.0000000), wk =   0.2222222
        k(    5) = (   0.2500000   0.4166667   0.0000000), wk =   0.4444444
        k(    6) = (   0.4166667   0.4166667   0.0000000), wk =   0.2222222

     Dense  grid:    32157 G-vectors     FFT dimensions: (  32,  32,  72)

     Estimated max dynamical RAM per process >       7.08MB

     Estimated total allocated dynamical RAM >      28.32MB

     Check: negative/imaginary core charge=   -0.000012    0.000000

     Initial potential from superposition of free atoms
     Check: negative starting charge=   -0.000169

     starting charge   11.99014, renormalised to   12.00000

     negative rho (up, down):  1.687E-04 0.000E+00
     Starting wfc are   16 randomized atomic wfcs

     total cpu time spent up to now is        0.3 secs

     Self-consistent Calculation

     iteration #  1     ecut=    20.00 Ry     beta=0.30
     Davidson diagonalization with overlap
     ethr =  1.00E-05,  avg # of iterations = 13.0

     negative rho (up, down):  1.005E-05 0.000E+00

     total cpu time spent up to now is        0.6 secs

     total energy              =     -49.54812361 Ry
     Harris-Foulkes estimate   =     -49.56868382 Ry
     estimated scf accuracy    <       0.02548010 Ry

     total charge of GC-SCF    =      -0.01567043 e
     the Fermi energy          =      -5.11078005 eV
                        (error :       1.35978005 eV)

     iteration #  2     ecut=    20.00 Ry     beta=0.30
     Davidson diagonalization with overlap
     ethr =  1.00E-05,  avg # of iterations =  3.0

     total cpu time spent up to now is        0.8 secs

     total energy              =     -49.51281604 Ry
     Harris-Foulkes estimate   =     -49.54469102 Ry
     estimated scf accuracy    <       0.01302015 Ry

     total charge of GC-SCF    =      -0.05467855 e
     the Fermi energy          =      -4.75581434 eV
                        (error :       1.00481434 eV)

     iteration #  3     ecut=    20.00 Ry     beta=0.30
     Davidson diagonalization with overlap
     ethr =  1.00E-05,  avg # of iterations =  5.5

     total cpu time spent up to now is        0.9 secs

     total energy              =     -49.51767669 Ry
     Harris-Foulkes estimate   =     -49.51758310 Ry
     estimated scf accuracy    <       0.00028348 Ry

     total charge of GC-SCF    =      -0.05625253 e
     the Fermi energy          =      -3.84009569 eV
                        (error :       0.08909569 eV)

     iteration #  4     ecut=    20.00 Ry     beta=0.30
     Davidson diagonalization with overlap
     ethr =  2.35E-06,  avg # of iterations =  6.5

     total cpu time spent up to now is        1.1 secs

     total energy              =     -49.51759781 Ry
     Harris-Foulkes estimate   =     -49.51771881 Ry
     estimated scf accuracy    <       0.00004583 Ry

     total charge of GC-SCF    =      -0.05864294 e
     the Fermi energy          =      -3.77842337 eV
                        (error :       0.02742337 eV)

     iteration #  5     ecut=    20.00 Ry     beta=0.30
     Davidson diagonalization with overlap
     ethr =  3.80E-07,  avg # of iterations =  4.3

     total cpu time spent up to now is        1.2 secs

     total energy              =     -49.51772172 Ry
     Harris-Foulkes estimate   =     -49.51767212 Ry
     estimated scf accuracy    <       0.00000465 Ry

     total charge of GC-SCF    =      -0.05586847 e
     the Fermi energy          =      -3.70065382 eV
                        (error :       0.05034618 eV)

     iteration #  6     ecut=    20.00 Ry     beta=0.30
     Davidson diagonalization with overlap
     ethr =  3.86E-08,  avg # of iterations =  6.8

     total cpu time spent up to now is        1.4 secs

     total energy              =     -49.51774150 Ry
     Harris-Foulkes estimate   =     -49.51774434 Ry
     estimated scf accuracy    <       0.00000156 Ry

     total charge of GC-SCF    =      -0.05534395 e
     the Fermi energy          =      -3.69197626 eV
                        (error :       0.05902374 eV)

     iteration #  7     ecut=    20.00 Ry     beta=0.30
     Davidson diagonalization with overlap
     ethr =  1.29E-08,  avg # of iterations =  4.7

     total cpu time spent up to now is        1.5 secs

     total energy              =     -49.51763714 Ry
     Harris-Foulkes estimate   =     -49.51774526 Ry
     estimated scf accuracy    <       0.00000063 Ry

     total charge of GC-SCF    =      -0.05000536 e
     the Fermi energy          =      -3.69038170 eV
                        (error :       0.06061830 eV)

     iteration #  8     ecut=    20.00 Ry     beta=0.30
     Davidson diagonalization with overlap
     ethr =  5.23E-09,  avg # of iterations =  6.0

     total cpu time spent up to now is        1.7 secs

     total energy              =     -49.51761415 Ry
     Harris-Foulkes estimate   =     -49.51763895 Ry
     estimated scf accuracy    <       0.00000043 Ry

     total charge of GC-SCF    =      -0.04913396 e
     the Fermi energy          =      -3.71952147 eV
                        (error :       0.03147853 eV)

     iteration #  9     ecut=    20.00 Ry     beta=0.30
     Davidson diagonalization with overlap
     ethr =  3.59E-09,  avg # of iterations =  3.0

     total cpu time spent up to now is        1.8 secs

     total energy              =     -49.51749481 Ry
     Harris-Foulkes estimate   =     -49.51761465 Ry
     estimated scf accuracy    <       0.00000023 Ry

     total charge of GC-SCF    =      -0.04554086 e
     the Fermi energy          =      -3.72302960 eV
                        (error :       0.02797040 eV)

     iteration # 10     ecut=    20.00 Ry     beta=0.30
     Davidson diagonalization with overlap
     ethr =  1.90E-09,  avg # of iterations =  5.5

     total cpu time spent up to now is        2.0 secs

     total energy              =     -49.51747450 Ry
     Harris-Foulkes estimate   =     -49.51749527 Ry
     estimated scf accuracy    <       0.00000005 Ry

     total charge of GC-SCF    =      -0.04479499 e
     the Fermi energy          =      -3.73993073 eV
                        (error :       0.01106927 eV)

     iteration # 11     ecut=    20.00 Ry     beta=0.30
     Davidson diagonalization with overlap
     ethr =  4.26E-10,  avg # of iterations =  8.2

     total cpu time spent up to now is        2.1 secs

     End of self-consistent calculation

          k = 0.0833 0.0833 0.0000 (  3999 PWs)   bands (ev):

   -10.8465  -7.2708  -7.2708  -5.5620  -5.5620  -4.8368  -3.7844  -2.9103
    -1.6200  -1.5956

          k = 0.0833 0.2500 0.0000 (  4011 PWs)   bands (ev):

   -10.5983  -8.4034  -7.0266  -5.3342  -4.8837  -4.5990  -3.9903  -3.4296
    -2.5290  -1.3645

          k = 0.0833 0.4167 0.0000 (  4016 PWs)   bands (ev):

   -10.1041  -9.3686  -6.5409  -5.8211  -4.8827  -4.2265  -4.1261  -3.4264
    -2.1554  -0.9059

          k = 0.2500 0.2500 0.0000 (  4007 PWs)   bands (ev):

   -10.3506  -8.1591  -8.1591  -6.0043  -4.3614  -3.7683  -3.7683  -2.4536
    -2.2948  -2.2948

          k = 0.2500 0.4167 0.0000 (  4019 PWs)   bands (ev):

    -9.8569  -9.1226  -7.6726  -6.9504  -3.8892  -3.3381  -3.1905  -2.7552
    -1.9556  -1.8286

          k = 0.4167 0.4167 0.0000 (  4005 PWs)   bands (ev):

    -9.3649  -8.6330  -8.6330  -7.9050  -3.4178  -2.7211  -2.7211  -2.0269
    -1.6072  -1.6072

     the Fermi energy is    -3.7432 ev

!    total energy              =     -49.51747201 Ry
     Harris-Foulkes estimate   =     -49.51747461 Ry
     estimated scf accuracy    <       0.00000006 Ry

     total charge of GC-SCF    =      -0.04335547 e

     The total energy is the sum of the following terms:

     one-electron contribution =    -145.42574099 Ry
     hartree contribution      =      73.49050078 Ry
     xc contribution           =     -39.23597427 Ry
     ewald contribution        =      61.64193118 Ry
     smearing contrib. (-TS)   =      -0.00014152 Ry
     pot.stat. contrib. (-muN) =       0.01195282 Ry

     convergence has been achieved in  11 iterations

     Forces acting on atoms (cartesian axes, Ry/au):

     atom    1 type  1   force =     0.00000000    0.00000000    0.00000000
     atom    2 type  1   force =     0.00000000    0.00000000    0.00000000
     atom    3 type  1   force =     0.00000000    0.00000000    0.00000000
     atom    4 type  1   force =     0.00000000    0.00000000    0.00000000

     Total force =     0.000000     Total SCF correction =     0.000000

     Writing output data file Al001_bc2_GCSCF_vm05.save

     init_run     :      0.18s CPU      0.19s WALL (       1 calls)
     electrons    :      1.81s CPU      1.86s WALL (       1 calls)
     forces       :      0.07s CPU      0.07s WALL (       1 calls)

     Called by init_run:
     wfcinit      :      0.05s CPU      0.05s WALL (       1 calls)
     potinit      :      0.03s CPU      0.03s WALL (       1 calls)

     Called by electrons:
     c_bands      :      1.44s CPU      1.49s WALL (      11 calls)
     sum_band     :      0.19s CPU      0.20s WALL (      11 calls)
     v_of_rho     :      0.12s CPU      0.13s WALL (      12 calls)
     newd         :      0.04s CPU      0.04s WALL (      12 calls)
     mix_rho      :      0.02s CPU      0.02s WALL (      11 calls)

     Called by c_bands:
     init_us_2    :      0.02s CPU      0.02s WALL (     144 calls)
     cegterg      :      1.42s CPU      1.46s WALL (      68 calls)

     Called by sum_band:
     sum_band:bec :      0.00s CPU      0.00s WALL (      66 calls)
     addusdens    :      0.04s CPU      0.04s WALL (      11 calls)

     Called by *egterg:
     h_psi        :      1.08s CPU      1.11s WALL (     473 calls)
     s_psi        :      0.02s CPU      0.02s WALL (     473 calls)
     g_psi        :      0.01s CPU      0.01s WALL (     399 calls)
     cdiaghg      :      0.10s CPU      0.10s WALL (     467 calls)

     Called by h_psi:
     h_psi:pot    :      1.06s CPU      1.09s WALL (     473 calls)
     h_psi:calbec :      0.05s CPU      0.05s WALL (     473 calls)
     vloc_psi     :      0.99s CPU      1.02s WALL (     473 calls)
     add_vuspsi   :      0.03s CPU      0.03s WALL (     473 calls)

     General routines
     calbec       :      0.06s CPU      0.06s WALL (     563 calls)
     fft          :      0.06s CPU      0.06s WALL (     166 calls)
     fftw         :      0.96s CPU      0.99s WALL (    6768 calls)
     davcio       :      0.00s CPU      0.00s WALL (       6 calls)

     Parallel routines
     fft_scatter  :      0.49s CPU      0.50s WALL (    6934 calls)

     PWSCF        :     2.11s CPU         2.21s WALL


   This run was terminated on:  23:11:14   4Feb2021            

=------------------------------------------------------------------------------=
   JOB DONE.
=------------------------------------------------------------------------------=
