
     Program PWSCF v.6.1 starts on 11Jan2021 at 17:28:15 

     This program is part of the open-source Quantum ESPRESSO suite
     for quantum simulation of materials; please cite
         "P. Giannozzi et al., J. Phys.:Condens. Matter 21 395502 (2009);
          URL http://www.quantum-espresso.org", 
     in publications or presentations arising from this work. More details at
     http://www.quantum-espresso.org/quote

     Parallel version (MPI), running on     4 processors
     R & G space division:  proc/nbgrp/npool/nimage =       4
     Waiting for input...
     Reading input from standard input

     Current dimensions of program PWSCF are:
     Max number of different atomic species (ntypx) = 10
     Max number of k-points (npk) =  40000
     Max angular momentum in pseudopotentials (lmaxx) =  3

     Subspace diagonalization in iterative solution of the eigenvalue problem:
     a serial algorithm will be used

     Found symmetry operation: I + ( -0.5000  0.0000  0.0000)
     This is a supercell, fractional translations are disabled

     Parallelization info
     --------------------
     sticks:   dense  smooth     PW     G-vecs:    dense   smooth      PW
     Min         187     187     54                 8037     8037    1261
     Max         188     188     56                 8044     8044    1262
     Sum         749     749    221                32157    32157    5047



     bravais-lattice index     =            0
     lattice parameter (alat)  =      10.8223  a.u.
     unit-cell volume          =    2655.9321 (a.u.)^3
     number of atoms/cell      =            4
     number of atomic types    =            1
     number of electrons       =        12.00
     number of Kohn-Sham states=           10
     kinetic-energy cutoff     =      20.0000  Ry
     charge density cutoff     =      80.0000  Ry
     convergence threshold     =      1.0E-06
     mixing beta               =       0.1000
     number of iterations used =            8  plain     mixing
     Exchange-correlation      =  SLA  PW   PBE  PBE ( 1  4  3  4 0 0)
     nstep                     =           50


     Effective Screening Medium Method
     =================================
     Boundary Conditions: Vacuum-Slab-Metal
     total charge in unit cell        =   0.0000
     grid points for fit at edges     =        4 


     >>>> FCP Relaxation is activated <<<<<
     Initial Total Charge =     0.000000 e
     Target Fermi Energy  =    -0.275546 Ry
                          =    -3.749000 eV

     celldm(1)=  10.822273  celldm(2)=   0.000000  celldm(3)=   0.000000
     celldm(4)=   0.000000  celldm(5)=   0.000000  celldm(6)=   0.000000

     crystal axes: (cart. coord. in units of alat)
               a(1) = (   1.000000   0.000000   0.000000 )  
               a(2) = (   0.000000   1.000000   0.000000 )  
               a(3) = (   0.000000   0.000000   2.095374 )  

     reciprocal axes: (cart. coord. in units 2 pi/alat)
               b(1) = (  1.000000  0.000000  0.000000 )  
               b(2) = (  0.000000  1.000000  0.000000 )  
               b(3) = (  0.000000  0.000000  0.477242 )  


     PseudoPot. # 1 for Al read from file:
     /home1/gler/share/qe-6.1-rism/pseudo/Al.pbe-n-van.UPF
     MD5 check sum: b11ded24487aef5bc42d5c7a2e22a7b6
     Pseudo is Ultrasoft + core correction, Zval =  3.0
     Generated by new atomic code, or converted to UPF format
     Using radial grid of  893 points,  2 beta functions with: 
                l(1) =   0
                l(2) =   1
     Q(r) pseudized with  8 coefficients,  rinner =    0.900   0.900   0.900


     atomic species   valence    mass     pseudopotential
        Al             3.00    26.98154     Al( 1.00)

      8 Sym. Ops. (no inversion) found



   Cartesian axes

     site n.     atom                  positions (alat units)
         1           Al  tau(   1) = (   0.0000000   0.0000000   0.0000000  )
         2           Al  tau(   2) = (   0.5000000   0.0000000   0.0000000  )
         3           Al  tau(   3) = (   0.0000000   0.5000000   0.0000000  )
         4           Al  tau(   4) = (   0.5000000   0.5000000   0.0000000  )

     number of k points=     6  Methfessel-Paxton smearing, width (Ry)=  0.0300
                       cart. coord. in units 2pi/alat
        k(    1) = (   0.0833333   0.0833333   0.0000000), wk =   0.2222222
        k(    2) = (   0.0833333   0.2500000   0.0000000), wk =   0.4444444
        k(    3) = (   0.0833333   0.4166667   0.0000000), wk =   0.4444444
        k(    4) = (   0.2500000   0.2500000   0.0000000), wk =   0.2222222
        k(    5) = (   0.2500000   0.4166667   0.0000000), wk =   0.4444444
        k(    6) = (   0.4166667   0.4166667   0.0000000), wk =   0.2222222

     Dense  grid:    32157 G-vectors     FFT dimensions: (  32,  32,  72)

     Estimated max dynamical RAM per process >       8.41MB

     Estimated total allocated dynamical RAM >      33.64MB

     Check: negative/imaginary core charge=   -0.000012    0.000000

     Initial potential from superposition of free atoms
     Check: negative starting charge=   -0.000169

     starting charge   11.99014, renormalised to   12.00000

     negative rho (up, down):  1.687E-04 0.000E+00
     Starting wfc are   16 randomized atomic wfcs

     total cpu time spent up to now is        0.5 secs

     per-process dynamical memory:     6.6 Mb

     Self-consistent Calculation

     iteration #  1     ecut=    20.00 Ry     beta=0.10
     RMM-DIIS diagonalization
     ethr =  1.00E-02,  avg # of iterations =  2.3

     Threshold (ethr) on eigenvalues was too large:
     Diagonalizing with lowered threshold

     RMM-DIIS diagonalization
     ethr =  5.22E-04,  avg # of iterations =  2.1

     negative rho (up, down):  1.411E-04 0.000E+00

     total cpu time spent up to now is        1.0 secs

     total energy              =     -49.53186380 Ry
     Harris-Foulkes estimate   =     -49.53893343 Ry
     estimated scf accuracy    <       0.07723192 Ry

     iteration #  2     ecut=    20.00 Ry     beta=0.10
     RMM-DIIS diagonalization
     ethr =  6.44E-04,  avg # of iterations =  2.5

     negative rho (up, down):  1.512E-05 0.000E+00

     total cpu time spent up to now is        1.2 secs

     total energy              =     -49.50857940 Ry
     Harris-Foulkes estimate   =     -49.53337147 Ry
     estimated scf accuracy    <       0.05719887 Ry

     iteration #  3     ecut=    20.00 Ry     beta=0.10
     RMM-DIIS diagonalization
     ethr =  4.77E-04,  avg # of iterations =  2.5

     negative rho (up, down):  1.790E-05 0.000E+00

     total cpu time spent up to now is        1.4 secs

     total energy              =     -49.51605672 Ry
     Harris-Foulkes estimate   =     -49.51656182 Ry
     estimated scf accuracy    <       0.00219497 Ry

     iteration #  4     ecut=    20.00 Ry     beta=0.10
     RMM-DIIS diagonalization
     ethr =  1.83E-05,  avg # of iterations =  3.5

     negative rho (up, down):  1.798E-07 0.000E+00

     total cpu time spent up to now is        1.7 secs

     total energy              =     -49.51642067 Ry
     Harris-Foulkes estimate   =     -49.51700154 Ry
     estimated scf accuracy    <       0.00177638 Ry

     iteration #  5     ecut=    20.00 Ry     beta=0.10
     RMM-DIIS diagonalization
     ethr =  1.48E-05,  avg # of iterations =  2.6

     negative rho (up, down):  2.132E-08 0.000E+00

     total cpu time spent up to now is        1.9 secs

     total energy              =     -49.51658925 Ry
     Harris-Foulkes estimate   =     -49.51658217 Ry
     estimated scf accuracy    <       0.00002079 Ry

     iteration #  6     ecut=    20.00 Ry     beta=0.10
     RMM-DIIS diagonalization
     ethr =  1.73E-07,  avg # of iterations =  4.3

     total cpu time spent up to now is        2.2 secs

     total energy              =     -49.51662598 Ry
     Harris-Foulkes estimate   =     -49.51661782 Ry
     estimated scf accuracy    <       0.00002244 Ry

     iteration #  7     ecut=    20.00 Ry     beta=0.10
     RMM-DIIS diagonalization
     ethr =  1.73E-07,  avg # of iterations =  2.5

     total cpu time spent up to now is        2.4 secs

     total energy              =     -49.51663120 Ry
     Harris-Foulkes estimate   =     -49.51662629 Ry
     estimated scf accuracy    <       0.00001078 Ry

     iteration #  8     ecut=    20.00 Ry     beta=0.10
     RMM-DIIS diagonalization
     ethr =  8.98E-08,  avg # of iterations =  2.5

     total cpu time spent up to now is        2.6 secs

     End of self-consistent calculation

          k = 0.0833 0.0833 0.0000 (  3999 PWs)   bands (ev):

   -11.3516  -7.7761  -7.7760  -6.0675  -6.0675  -5.3119  -4.2903  -3.4173
    -2.1242  -2.0766

          k = 0.0833 0.2500 0.0000 (  4011 PWs)   bands (ev):

   -11.1034  -8.9086  -7.5319  -5.8398  -5.3893  -5.0743  -4.4960  -3.9359
    -3.0069  -1.8457

          k = 0.0833 0.4167 0.0000 (  4016 PWs)   bands (ev):

   -10.6092  -9.8737  -7.0462  -6.3265  -5.3883  -4.7324  -4.6018  -3.9029
    -2.6612  -1.3875

          k = 0.2500 0.2500 0.0000 (  4007 PWs)   bands (ev):

   -10.8556  -8.6643  -8.6643  -6.5097  -4.8369  -4.2740  -4.2740  -2.9607
    -2.7729  -2.7729

          k = 0.2500 0.4167 0.0000 (  4019 PWs)   bands (ev):

   -10.3620  -9.6277  -8.1779  -7.4557  -4.3651  -3.8440  -3.6672  -3.2615
    -2.4616  -2.3071

          k = 0.4167 0.4167 0.0000 (  4005 PWs)   bands (ev):

    -9.8700  -9.1382  -9.1382  -8.4102  -3.8942  -3.1982  -3.1982  -2.5045
    -2.1135  -2.0495

     the Fermi energy is    -4.2507 ev

!    total energy              =     -49.51663135 Ry
     Harris-Foulkes estimate   =     -49.51663211 Ry
     estimated scf accuracy    <       0.00000008 Ry

     The total energy is the sum of the following terms:

     one-electron contribution =    -320.17557897 Ry
     hartree contribution      =     160.64798632 Ry
     xc contribution           =     -39.22092844 Ry
     ewald contribution        =     149.23211567 Ry
     smearing contrib. (-TS)   =      -0.00022593 Ry
     pot.stat. contrib. (-muN) =      -0.00000000 Ry

     convergence has been achieved in   8 iterations

     BFGS Geometry Optimization

     number of scf cycles    =   1
     number of bfgs steps    =   0

     grand-energy   new      =     -49.5166313485 Ry

     new trust radius        =       0.1843876032 bohr
     new conv_thr            =       0.0000010000 Ry


ATOMIC_POSITIONS (angstrom)
Al       0.000000000   0.000000000   0.000000000
Al       2.863450038   0.000000000   0.000000000
Al       0.000000000   2.863450038   0.000000000
Al       2.863450038   2.863450038   0.000000000


     FCP: Total Charge =     0.000000  ->    -0.015157
     FCP: Fermi Energy =    -0.312424 Ry (   -4.250744 eV)
     FCP: Target Level =    -0.275546 Ry (   -3.749000 eV)
     FCP: Force on FCP =     0.036878 Ry (    0.501744 eV)
     FCP: Force Thr.   =     0.000735 Ry (    0.010000 eV)



     Writing output data file Al001_bc3_FCP_vp05.save
     Check: negative starting charge=   -0.000169
     NEW-OLD atomic charge density approx. for the potential

     Check: negative/imaginary core charge=   -0.000012    0.000000
     Check: negative starting charge=   -0.000169
     extrapolated charge   12.00000, renormalised to   12.01516

     total cpu time spent up to now is        2.9 secs

     per-process dynamical memory:    10.4 Mb

     Self-consistent Calculation

     iteration #  1     ecut=    20.00 Ry     beta=0.10
     RMM-DIIS diagonalization
     ethr =  1.00E-06,  avg # of iterations =  1.5

     Threshold (ethr) on eigenvalues was too large:
     Diagonalizing with lowered threshold

     RMM-DIIS diagonalization
     ethr =  2.29E-09,  avg # of iterations =  1.9

     total cpu time spent up to now is        3.3 secs

     End of self-consistent calculation

          k = 0.0833 0.0833 0.0000 (  3999 PWs)   bands (ev):

   -11.3501  -7.7746  -7.7745  -6.0661  -6.0661  -5.3106  -4.2888  -3.4158
    -2.1226  -2.0752

          k = 0.0833 0.2500 0.0000 (  4011 PWs)   bands (ev):

   -11.1019  -8.9071  -7.5304  -5.8383  -5.3877  -5.0729  -4.4946  -3.9344
    -3.0055  -1.8443

          k = 0.0833 0.4167 0.0000 (  4016 PWs)   bands (ev):

   -10.6077  -9.8722  -7.0447  -6.3249  -5.3869  -4.7309  -4.6004  -3.9015
    -2.6597  -1.3861

          k = 0.2500 0.2500 0.0000 (  4007 PWs)   bands (ev):

   -10.8542  -8.6628  -8.6628  -6.5082  -4.8355  -4.2725  -4.2725  -2.9592
    -2.7715  -2.7715

          k = 0.2500 0.4167 0.0000 (  4019 PWs)   bands (ev):

   -10.3606  -9.6262  -8.1764  -7.4542  -4.3638  -3.8425  -3.6659  -3.2600
    -2.4601  -2.3058

          k = 0.4167 0.4167 0.0000 (  4005 PWs)   bands (ev):

    -9.8685  -9.1367  -9.1367  -8.4087  -3.8928  -3.1968  -3.1968  -2.5032
    -2.1121  -2.0480

     the Fermi energy is    -4.2450 ev

!    total energy              =     -49.51693764 Ry
     Harris-Foulkes estimate   =     -49.91336964 Ry
     estimated scf accuracy    <       0.00000024 Ry

     The total energy is the sum of the following terms:

     one-electron contribution =    -320.57237163 Ry
     hartree contribution      =     161.04928004 Ry
     xc contribution           =     -39.22993812 Ry
     ewald contribution        =     149.23211567 Ry
     smearing contrib. (-TS)   =      -0.00020000 Ry
     pot.stat. contrib. (-muN) =       0.00417641 Ry

     convergence has been achieved in   1 iterations

     number of scf cycles    =   2
     number of bfgs steps    =   1

     grand-energy   old      =     -49.5166313485 Ry
     grand-energy   new      =     -49.5169376381 Ry


     WARNING: bfgs curvature condition failed, Theta= 0.809
     new trust radius        =       0.2028263635 bohr
     new conv_thr            =       0.0000000100 Ry


ATOMIC_POSITIONS (angstrom)
Al       0.000000000   0.000000000   0.000000000
Al       2.863450038   0.000000000   0.000000000
Al       0.000000000   2.863450038   0.000000000
Al       2.863450038   2.863450038   0.000000000


     FCP: Total Charge =    -0.015157  ->    -0.031829
     FCP: Fermi Energy =    -0.312003 Ry (   -4.245011 eV)
     FCP: Target Level =    -0.275546 Ry (   -3.749000 eV)
     FCP: Force on FCP =     0.036456 Ry (    0.496011 eV)
     FCP: Force Thr.   =     0.000735 Ry (    0.010000 eV)



     Writing output data file Al001_bc3_FCP_vp05.save
     Check: negative starting charge=   -0.000169
     NEW-OLD atomic charge density approx. for the potential

     Check: negative/imaginary core charge=   -0.000012    0.000000
     Check: negative starting charge=   -0.000169
     extrapolated charge   12.01516, renormalised to   12.03183

     total cpu time spent up to now is        3.6 secs

     per-process dynamical memory:    10.4 Mb

     Self-consistent Calculation

     iteration #  1     ecut=    20.00 Ry     beta=0.10
     RMM-DIIS diagonalization
     ethr =  1.00E-06,  avg # of iterations =  3.4

     total cpu time spent up to now is        3.9 secs

     total energy              =     -49.51721222 Ry
     Harris-Foulkes estimate   =     -49.95354407 Ry
     estimated scf accuracy    <       0.00047559 Ry

     iteration #  2     ecut=    20.00 Ry     beta=0.10
     RMM-DIIS diagonalization
     ethr =  3.95E-06,  avg # of iterations =  3.1

     total cpu time spent up to now is        4.2 secs

     total energy              =     -49.51789322 Ry
     Harris-Foulkes estimate   =     -49.51739143 Ry
     estimated scf accuracy    <       0.00151858 Ry

     iteration #  3     ecut=    20.00 Ry     beta=0.10
     RMM-DIIS diagonalization
     ethr =  3.95E-06,  avg # of iterations =  3.0

     total cpu time spent up to now is        4.4 secs

     total energy              =     -49.51775608 Ry
     Harris-Foulkes estimate   =     -49.51803479 Ry
     estimated scf accuracy    <       0.00401437 Ry

     iteration #  4     ecut=    20.00 Ry     beta=0.10
     RMM-DIIS diagonalization
     ethr =  3.95E-06,  avg # of iterations =  2.5

     total cpu time spent up to now is        4.6 secs

     total energy              =     -49.51755725 Ry
     Harris-Foulkes estimate   =     -49.51776724 Ry
     estimated scf accuracy    <       0.00319076 Ry

     iteration #  5     ecut=    20.00 Ry     beta=0.10
     RMM-DIIS diagonalization
     ethr =  3.95E-06,  avg # of iterations =  2.5

     total cpu time spent up to now is        4.8 secs

     total energy              =     -49.51736555 Ry
     Harris-Foulkes estimate   =     -49.51756941 Ry
     estimated scf accuracy    <       0.00243825 Ry

     iteration #  6     ecut=    20.00 Ry     beta=0.10
     RMM-DIIS diagonalization
     ethr =  3.95E-06,  avg # of iterations =  2.5

     total cpu time spent up to now is        5.0 secs

     total energy              =     -49.51709797 Ry
     Harris-Foulkes estimate   =     -49.51738219 Ry
     estimated scf accuracy    <       0.00170335 Ry

     iteration #  7     ecut=    20.00 Ry     beta=0.10
     RMM-DIIS diagonalization
     ethr =  3.95E-06,  avg # of iterations =  2.7

     total cpu time spent up to now is        5.2 secs

     total energy              =     -49.51702685 Ry
     Harris-Foulkes estimate   =     -49.51714600 Ry
     estimated scf accuracy    <       0.00073459 Ry

     iteration #  8     ecut=    20.00 Ry     beta=0.10
     RMM-DIIS diagonalization
     ethr =  3.95E-06,  avg # of iterations =  2.5

     total cpu time spent up to now is        5.4 secs

     total energy              =     -49.51709542 Ry
     Harris-Foulkes estimate   =     -49.51704899 Ry
     estimated scf accuracy    <       0.00032311 Ry

     iteration #  9     ecut=    20.00 Ry     beta=0.10
     RMM-DIIS diagonalization
     ethr =  2.69E-06,  avg # of iterations =  2.5

     total cpu time spent up to now is        5.6 secs

     total energy              =     -49.51709755 Ry
     Harris-Foulkes estimate   =     -49.51710011 Ry
     estimated scf accuracy    <       0.00047008 Ry

     iteration # 10     ecut=    20.00 Ry     beta=0.10
     RMM-DIIS diagonalization
     ethr =  2.69E-06,  avg # of iterations =  2.5

     total cpu time spent up to now is        5.8 secs

     total energy              =     -49.51687459 Ry
     Harris-Foulkes estimate   =     -49.51709776 Ry
     estimated scf accuracy    <       0.00046713 Ry

     iteration # 11     ecut=    20.00 Ry     beta=0.10
     RMM-DIIS diagonalization
     ethr =  2.69E-06,  avg # of iterations =  3.0

     total cpu time spent up to now is        6.0 secs

     total energy              =     -49.51698323 Ry
     Harris-Foulkes estimate   =     -49.51698295 Ry
     estimated scf accuracy    <       0.00000075 Ry

     iteration # 12     ecut=    20.00 Ry     beta=0.10
     RMM-DIIS diagonalization
     ethr =  6.24E-09,  avg # of iterations =  4.2

     total cpu time spent up to now is        6.3 secs

     total energy              =     -49.51698473 Ry
     Harris-Foulkes estimate   =     -49.51698545 Ry
     estimated scf accuracy    <       0.00000309 Ry

     iteration # 13     ecut=    20.00 Ry     beta=0.10
     RMM-DIIS diagonalization
     ethr =  6.24E-09,  avg # of iterations =  2.6

     total cpu time spent up to now is        6.5 secs

     total energy              =     -49.51698382 Ry
     Harris-Foulkes estimate   =     -49.51698477 Ry
     estimated scf accuracy    <       0.00000175 Ry

     iteration # 14     ecut=    20.00 Ry     beta=0.10
     RMM-DIIS diagonalization
     ethr =  6.24E-09,  avg # of iterations =  2.8

     total cpu time spent up to now is        6.6 secs

     total energy              =     -49.51698378 Ry
     Harris-Foulkes estimate   =     -49.51698390 Ry
     estimated scf accuracy    <       0.00000051 Ry

     iteration # 15     ecut=    20.00 Ry     beta=0.10
     RMM-DIIS diagonalization
     ethr =  4.23E-09,  avg # of iterations =  2.5

     total cpu time spent up to now is        6.8 secs

     total energy              =     -49.51698320 Ry
     Harris-Foulkes estimate   =     -49.51698379 Ry
     estimated scf accuracy    <       0.00000027 Ry

     iteration # 16     ecut=    20.00 Ry     beta=0.10
     RMM-DIIS diagonalization
     ethr =  2.28E-09,  avg # of iterations =  3.1

     total cpu time spent up to now is        7.0 secs

     total energy              =     -49.51698381 Ry
     Harris-Foulkes estimate   =     -49.51698347 Ry
     estimated scf accuracy    <       0.00000042 Ry

     iteration # 17     ecut=    20.00 Ry     beta=0.10
     RMM-DIIS diagonalization
     ethr =  2.28E-09,  avg # of iterations =  2.5

     total cpu time spent up to now is        7.2 secs

     total energy              =     -49.51698484 Ry
     Harris-Foulkes estimate   =     -49.51698382 Ry
     estimated scf accuracy    <       0.00000018 Ry

     iteration # 18     ecut=    20.00 Ry     beta=0.10
     RMM-DIIS diagonalization
     ethr =  1.52E-09,  avg # of iterations =  2.9

     total cpu time spent up to now is        7.4 secs

     total energy              =     -49.51698534 Ry
     Harris-Foulkes estimate   =     -49.51698492 Ry
     estimated scf accuracy    <       0.00000006 Ry

     iteration # 19     ecut=    20.00 Ry     beta=0.10
     RMM-DIIS diagonalization
     ethr =  5.15E-10,  avg # of iterations =  2.6

     total cpu time spent up to now is        7.6 secs

     End of self-consistent calculation

          k = 0.0833 0.0833 0.0000 (  3999 PWs)   bands (ev):

   -10.6293  -7.0537  -7.0537  -5.3450  -5.3450  -4.6113  -3.5675  -2.6938
    -1.4026  -1.3716

          k = 0.0833 0.2500 0.0000 (  4011 PWs)   bands (ev):

   -10.3812  -8.1863  -6.8095  -5.1172  -4.6667  -4.3735  -3.7734  -3.2129
    -2.3042  -1.1406

          k = 0.0833 0.4167 0.0000 (  4016 PWs)   bands (ev):

    -9.8869  -9.1515  -6.3238  -5.6040  -4.6657  -4.0096  -3.9006  -3.2012
    -1.9385  -0.6821

          k = 0.2500 0.2500 0.0000 (  4007 PWs)   bands (ev):

   -10.1334  -7.9420  -7.9420  -5.7872  -4.1359  -3.5513  -3.5513  -2.2371
    -2.0700  -2.0700

          k = 0.2500 0.4167 0.0000 (  4019 PWs)   bands (ev):

    -9.6398  -8.9055  -7.4555  -6.7334  -3.6638  -3.1212  -2.9654  -2.5384
    -1.7388  -1.6040

          k = 0.4167 0.4167 0.0000 (  4005 PWs)   bands (ev):

    -9.1478  -8.4159  -8.4159  -7.6879  -3.1926  -2.4960  -2.4960  -1.8021
    -1.3904  -1.3258

     the Fermi energy is    -3.5266 ev

!    total energy              =     -49.51698768 Ry
     Harris-Foulkes estimate   =     -49.51698535 Ry
     estimated scf accuracy    <          5.1E-09 Ry

     The total energy is the sum of the following terms:

     one-electron contribution =    -320.81227361 Ry
     hartree contribution      =     161.28667207 Ry
     xc contribution           =     -39.23211471 Ry
     ewald contribution        =     149.23211567 Ry
     smearing contrib. (-TS)   =      -0.00015757 Ry
     pot.stat. contrib. (-muN) =       0.00877047 Ry

     convergence has been achieved in  19 iterations

     number of scf cycles    =   3
     number of bfgs steps    =   2

     grand-energy   old      =     -49.5169376381 Ry
     grand-energy   new      =     -49.5169876760 Ry

     new trust radius        =       0.0627874740 bohr
     new conv_thr            =       0.0000000100 Ry


ATOMIC_POSITIONS (angstrom)
Al       0.000000000   0.000000000   0.000000000
Al       2.863450038   0.000000000   0.000000000
Al       0.000000000   2.863450038   0.000000000
Al       2.863450038   2.863450038   0.000000000


     FCP: Total Charge =    -0.031829  ->    -0.026668
     FCP: Fermi Energy =    -0.259201 Ry (   -3.526610 eV)
     FCP: Target Level =    -0.275546 Ry (   -3.749000 eV)
     FCP: Force on FCP =    -0.016345 Ry (   -0.222390 eV)
     FCP: Force Thr.   =     0.000735 Ry (    0.010000 eV)



     Writing output data file Al001_bc3_FCP_vp05.save
     Check: negative starting charge=   -0.000169
     NEW-OLD atomic charge density approx. for the potential

     Check: negative/imaginary core charge=   -0.000012    0.000000
     Check: negative starting charge=   -0.000169
     extrapolated charge   12.03183, renormalised to   12.02667

     total cpu time spent up to now is        7.9 secs

     per-process dynamical memory:    12.1 Mb

     Self-consistent Calculation

     iteration #  1     ecut=    20.00 Ry     beta=0.10
     RMM-DIIS diagonalization
     ethr =  1.00E-06,  avg # of iterations =  1.5

     Threshold (ethr) on eigenvalues was too large:
     Diagonalizing with lowered threshold

     RMM-DIIS diagonalization
     ethr =  4.77E-10,  avg # of iterations =  1.5

     total cpu time spent up to now is        8.2 secs

     total energy              =     -49.51704201 Ry
     Harris-Foulkes estimate   =     -49.38197959 Ry
     estimated scf accuracy    <       0.00000006 Ry

     iteration #  2     ecut=    20.00 Ry     beta=0.10
     RMM-DIIS diagonalization
     ethr =  5.30E-10,  avg # of iterations =  4.4

     total cpu time spent up to now is        8.5 secs

     total energy              =     -49.51706739 Ry
     Harris-Foulkes estimate   =     -49.51706776 Ry
     estimated scf accuracy    <       0.00006272 Ry

     iteration #  3     ecut=    20.00 Ry     beta=0.10
     RMM-DIIS diagonalization
     ethr =  5.30E-10,  avg # of iterations =  2.8

     total cpu time spent up to now is        8.6 secs

     total energy              =     -49.51706731 Ry
     Harris-Foulkes estimate   =     -49.51706759 Ry
     estimated scf accuracy    <       0.00006669 Ry

     iteration #  4     ecut=    20.00 Ry     beta=0.10
     RMM-DIIS diagonalization
     ethr =  5.30E-10,  avg # of iterations =  2.6

     total cpu time spent up to now is        8.8 secs

     total energy              =     -49.51707090 Ry
     Harris-Foulkes estimate   =     -49.51706731 Ry
     estimated scf accuracy    <       0.00006555 Ry

     iteration #  5     ecut=    20.00 Ry     beta=0.10
     RMM-DIIS diagonalization
     ethr =  5.30E-10,  avg # of iterations =  3.1

     total cpu time spent up to now is        9.0 secs

     total energy              =     -49.51707369 Ry
     Harris-Foulkes estimate   =     -49.51707099 Ry
     estimated scf accuracy    <       0.00007630 Ry

     iteration #  6     ecut=    20.00 Ry     beta=0.10
     RMM-DIIS diagonalization
     ethr =  5.30E-10,  avg # of iterations =  3.0

     total cpu time spent up to now is        9.2 secs

     total energy              =     -49.51706980 Ry
     Harris-Foulkes estimate   =     -49.51707375 Ry
     estimated scf accuracy    <       0.00008480 Ry

     iteration #  7     ecut=    20.00 Ry     beta=0.10
     RMM-DIIS diagonalization
     ethr =  5.30E-10,  avg # of iterations =  3.0

     total cpu time spent up to now is        9.4 secs

     total energy              =     -49.51705842 Ry
     Harris-Foulkes estimate   =     -49.51706987 Ry
     estimated scf accuracy    <       0.00007437 Ry

     iteration #  8     ecut=    20.00 Ry     beta=0.10
     RMM-DIIS diagonalization
     ethr =  5.30E-10,  avg # of iterations =  3.8

     total cpu time spent up to now is        9.7 secs

     total energy              =     -49.51705715 Ry
     Harris-Foulkes estimate   =     -49.51705929 Ry
     estimated scf accuracy    <       0.00004396 Ry

     iteration #  9     ecut=    20.00 Ry     beta=0.10
     RMM-DIIS diagonalization
     ethr =  5.30E-10,  avg # of iterations =  3.0

     total cpu time spent up to now is        9.9 secs

     total energy              =     -49.51705673 Ry
     Harris-Foulkes estimate   =     -49.51705722 Ry
     estimated scf accuracy    <       0.00003732 Ry

     iteration # 10     ecut=    20.00 Ry     beta=0.10
     RMM-DIIS diagonalization
     ethr =  5.30E-10,  avg # of iterations =  2.6

     total cpu time spent up to now is       10.0 secs

     total energy              =     -49.51703149 Ry
     Harris-Foulkes estimate   =     -49.51705674 Ry
     estimated scf accuracy    <       0.00003586 Ry

     iteration # 11     ecut=    20.00 Ry     beta=0.10
     RMM-DIIS diagonalization
     ethr =  5.30E-10,  avg # of iterations =  4.4

     total cpu time spent up to now is       10.3 secs

     total energy              =     -49.51704399 Ry
     Harris-Foulkes estimate   =     -49.51703978 Ry
     estimated scf accuracy    <       0.00000010 Ry

     iteration # 12     ecut=    20.00 Ry     beta=0.10
     RMM-DIIS diagonalization
     ethr =  5.30E-10,  avg # of iterations =  3.5

     total cpu time spent up to now is       10.5 secs

     total energy              =     -49.51704239 Ry
     Harris-Foulkes estimate   =     -49.51704411 Ry
     estimated scf accuracy    <       0.00000012 Ry

     iteration # 13     ecut=    20.00 Ry     beta=0.10
     RMM-DIIS diagonalization
     ethr =  5.30E-10,  avg # of iterations =  3.0

     total cpu time spent up to now is       10.7 secs

     total energy              =     -49.51704274 Ry
     Harris-Foulkes estimate   =     -49.51704245 Ry
     estimated scf accuracy    <       0.00000003 Ry

     iteration # 14     ecut=    20.00 Ry     beta=0.10
     RMM-DIIS diagonalization
     ethr =  2.22E-10,  avg # of iterations =  2.6

     total cpu time spent up to now is       10.9 secs

     total energy              =     -49.51704256 Ry
     Harris-Foulkes estimate   =     -49.51704274 Ry
     estimated scf accuracy    <       0.00000004 Ry

     iteration # 15     ecut=    20.00 Ry     beta=0.10
     RMM-DIIS diagonalization
     ethr =  2.22E-10,  avg # of iterations =  2.5

     total cpu time spent up to now is       11.1 secs

     total energy              =     -49.51704383 Ry
     Harris-Foulkes estimate   =     -49.51704256 Ry
     estimated scf accuracy    <       0.00000006 Ry

     iteration # 16     ecut=    20.00 Ry     beta=0.10
     RMM-DIIS diagonalization
     ethr =  2.22E-10,  avg # of iterations =  2.9

     total cpu time spent up to now is       11.3 secs

     End of self-consistent calculation

          k = 0.0833 0.0833 0.0000 (  3999 PWs)   bands (ev):

   -10.7451  -7.1695  -7.1695  -5.4608  -5.4608  -4.7235  -3.6833  -2.8098
    -1.5183  -1.4846

          k = 0.0833 0.2500 0.0000 (  4011 PWs)   bands (ev):

   -10.4970  -8.3021  -6.9253  -5.2331  -4.7825  -4.4858  -3.8893  -3.3288
    -2.4168  -1.2536

          k = 0.0833 0.4167 0.0000 (  4016 PWs)   bands (ev):

   -10.0027  -9.2673  -6.4396  -5.7198  -4.7816  -4.1255  -4.0130  -3.3136
    -2.0543  -0.7952

          k = 0.2500 0.2500 0.0000 (  4007 PWs)   bands (ev):

   -10.2492  -8.0578  -8.0578  -5.9030  -4.2482  -3.6672  -3.6672  -2.3531
    -2.1827  -2.1827

          k = 0.2500 0.4167 0.0000 (  4019 PWs)   bands (ev):

    -9.7556  -9.0212  -7.5713  -6.8492  -3.7762  -3.2371  -3.0779  -2.6543
    -1.8546  -1.7167

          k = 0.4167 0.4167 0.0000 (  4005 PWs)   bands (ev):

    -9.2635  -8.5317  -8.5317  -7.8037  -3.3050  -2.6085  -2.6085  -1.9147
    -1.5064  -1.4418

     the Fermi energy is    -3.6427 ev

!    total energy              =     -49.51704425 Ry
     Harris-Foulkes estimate   =     -49.51704385 Ry
     estimated scf accuracy    <          4.0E-09 Ry

     The total energy is the sum of the following terms:

     one-electron contribution =    -320.70902825 Ry
     hartree contribution      =     161.18298217 Ry
     xc contribution           =     -39.23029588 Ry
     ewald contribution        =     149.23211567 Ry
     smearing contrib. (-TS)   =      -0.00016629 Ry
     pot.stat. contrib. (-muN) =       0.00734832 Ry

     convergence has been achieved in  16 iterations

     number of scf cycles    =   4
     number of bfgs steps    =   3

     grand-energy   old      =     -49.5169876760 Ry
     grand-energy   new      =     -49.5170442518 Ry

     new trust radius        =       0.0574883949 bohr
     new conv_thr            =       0.0000000100 Ry


ATOMIC_POSITIONS (angstrom)
Al       0.000000000   0.000000000   0.000000000
Al       2.863450038   0.000000000   0.000000000
Al       0.000000000   2.863450038   0.000000000
Al       2.863450038   2.863450038   0.000000000


     FCP: Total Charge =    -0.026668  ->    -0.021943
     FCP: Fermi Energy =    -0.267734 Ry (   -3.642704 eV)
     FCP: Target Level =    -0.275546 Ry (   -3.749000 eV)
     FCP: Force on FCP =    -0.007813 Ry (   -0.106296 eV)
     FCP: Force Thr.   =     0.000735 Ry (    0.010000 eV)



     Writing output data file Al001_bc3_FCP_vp05.save
     Check: negative starting charge=   -0.000169
     NEW-OLD atomic charge density approx. for the potential

     Check: negative/imaginary core charge=   -0.000012    0.000000
     Check: negative starting charge=   -0.000169
     extrapolated charge   12.02667, renormalised to   12.02194

     total cpu time spent up to now is       11.6 secs

     per-process dynamical memory:    12.1 Mb

     Self-consistent Calculation

     iteration #  1     ecut=    20.00 Ry     beta=0.10
     RMM-DIIS diagonalization
     ethr =  1.00E-06,  avg # of iterations =  1.5

     Threshold (ethr) on eigenvalues was too large:
     Diagonalizing with lowered threshold

     RMM-DIIS diagonalization
     ethr =  1.04E-10,  avg # of iterations =  1.5

     total cpu time spent up to now is       11.9 secs

     total energy              =     -49.51705649 Ry
     Harris-Foulkes estimate   =     -49.39341715 Ry
     estimated scf accuracy    <       0.00000001 Ry

     iteration #  2     ecut=    20.00 Ry     beta=0.10
     RMM-DIIS diagonalization
     ethr =  1.08E-10,  avg # of iterations =  4.4

     total cpu time spent up to now is       12.2 secs

     total energy              =     -49.51707773 Ry
     Harris-Foulkes estimate   =     -49.51707769 Ry
     estimated scf accuracy    <       0.00005402 Ry

     iteration #  3     ecut=    20.00 Ry     beta=0.10
     RMM-DIIS diagonalization
     ethr =  1.08E-10,  avg # of iterations =  3.4

     total cpu time spent up to now is       12.4 secs

     total energy              =     -49.51707784 Ry
     Harris-Foulkes estimate   =     -49.51707790 Ry
     estimated scf accuracy    <       0.00005876 Ry

     iteration #  4     ecut=    20.00 Ry     beta=0.10
     RMM-DIIS diagonalization
     ethr =  1.08E-10,  avg # of iterations =  2.6

     total cpu time spent up to now is       12.6 secs

     total energy              =     -49.51707792 Ry
     Harris-Foulkes estimate   =     -49.51707784 Ry
     estimated scf accuracy    <       0.00005834 Ry

     iteration #  5     ecut=    20.00 Ry     beta=0.10
     RMM-DIIS diagonalization
     ethr =  1.08E-10,  avg # of iterations =  2.5

     total cpu time spent up to now is       12.8 secs

     total energy              =     -49.51707980 Ry
     Harris-Foulkes estimate   =     -49.51707792 Ry
     estimated scf accuracy    <       0.00005831 Ry

     iteration #  6     ecut=    20.00 Ry     beta=0.10
     RMM-DIIS diagonalization
     ethr =  1.08E-10,  avg # of iterations =  3.2

     total cpu time spent up to now is       13.0 secs

     total energy              =     -49.51708020 Ry
     Harris-Foulkes estimate   =     -49.51707982 Ry
     estimated scf accuracy    <       0.00005721 Ry

     iteration #  7     ecut=    20.00 Ry     beta=0.10
     RMM-DIIS diagonalization
     ethr =  1.08E-10,  avg # of iterations =  2.5

     total cpu time spent up to now is       13.1 secs

     total energy              =     -49.51708093 Ry
     Harris-Foulkes estimate   =     -49.51708020 Ry
     estimated scf accuracy    <       0.00005660 Ry

     iteration #  8     ecut=    20.00 Ry     beta=0.10
     RMM-DIIS diagonalization
     ethr =  1.08E-10,  avg # of iterations =  2.9

     total cpu time spent up to now is       13.3 secs

     total energy              =     -49.51708115 Ry
     Harris-Foulkes estimate   =     -49.51708094 Ry
     estimated scf accuracy    <       0.00005500 Ry

     iteration #  9     ecut=    20.00 Ry     beta=0.10
     RMM-DIIS diagonalization
     ethr =  1.08E-10,  avg # of iterations =  2.5

     total cpu time spent up to now is       13.5 secs

     total energy              =     -49.51708081 Ry
     Harris-Foulkes estimate   =     -49.51708115 Ry
     estimated scf accuracy    <       0.00005454 Ry

     iteration # 10     ecut=    20.00 Ry     beta=0.10
     RMM-DIIS diagonalization
     ethr =  1.08E-10,  avg # of iterations =  2.5

     total cpu time spent up to now is       13.7 secs

     total energy              =     -49.51708797 Ry
     Harris-Foulkes estimate   =     -49.51708081 Ry
     estimated scf accuracy    <       0.00005446 Ry

     iteration # 11     ecut=    20.00 Ry     beta=0.10
     RMM-DIIS diagonalization
     ethr =  1.08E-10,  avg # of iterations =  4.4

     total cpu time spent up to now is       14.0 secs

     total energy              =     -49.51705950 Ry
     Harris-Foulkes estimate   =     -49.51708862 Ry
     estimated scf accuracy    <       0.00003364 Ry

     iteration # 12     ecut=    20.00 Ry     beta=0.10
     RMM-DIIS diagonalization
     ethr =  1.08E-10,  avg # of iterations =  4.4

     total cpu time spent up to now is       14.2 secs

     total energy              =     -49.51706504 Ry
     Harris-Foulkes estimate   =     -49.51706564 Ry
     estimated scf accuracy    <       0.00000048 Ry

     iteration # 13     ecut=    20.00 Ry     beta=0.10
     RMM-DIIS diagonalization
     ethr =  1.08E-10,  avg # of iterations =  3.1

     total cpu time spent up to now is       14.4 secs

     total energy              =     -49.51706962 Ry
     Harris-Foulkes estimate   =     -49.51706511 Ry
     estimated scf accuracy    <       0.00000017 Ry

     iteration # 14     ecut=    20.00 Ry     beta=0.10
     RMM-DIIS diagonalization
     ethr =  1.08E-10,  avg # of iterations =  3.8

     total cpu time spent up to now is       14.7 secs

     total energy              =     -49.51705849 Ry
     Harris-Foulkes estimate   =     -49.51707002 Ry
     estimated scf accuracy    <       0.00000270 Ry

     iteration # 15     ecut=    20.00 Ry     beta=0.10
     RMM-DIIS diagonalization
     ethr =  1.08E-10,  avg # of iterations =  4.2

     total cpu time spent up to now is       14.9 secs

     total energy              =     -49.51705875 Ry
     Harris-Foulkes estimate   =     -49.51705962 Ry
     estimated scf accuracy    <       0.00000090 Ry

     iteration # 16     ecut=    20.00 Ry     beta=0.10
     RMM-DIIS diagonalization
     ethr =  1.08E-10,  avg # of iterations =  3.0

     total cpu time spent up to now is       15.1 secs

     total energy              =     -49.51705633 Ry
     Harris-Foulkes estimate   =     -49.51705876 Ry
     estimated scf accuracy    <       0.00000082 Ry

     iteration # 17     ecut=    20.00 Ry     beta=0.10
     RMM-DIIS diagonalization
     ethr =  1.08E-10,  avg # of iterations =  3.5

     total cpu time spent up to now is       15.4 secs

     total energy              =     -49.51706934 Ry
     Harris-Foulkes estimate   =     -49.51705642 Ry
     estimated scf accuracy    <       0.00000208 Ry

     iteration # 18     ecut=    20.00 Ry     beta=0.10
     RMM-DIIS diagonalization
     ethr =  1.08E-10,  avg # of iterations =  4.4

     total cpu time spent up to now is       15.6 secs

     total energy              =     -49.51706860 Ry
     Harris-Foulkes estimate   =     -49.51707084 Ry
     estimated scf accuracy    <       0.00000189 Ry

     iteration # 19     ecut=    20.00 Ry     beta=0.10
     RMM-DIIS diagonalization
     ethr =  1.08E-10,  avg # of iterations =  3.1

     total cpu time spent up to now is       15.8 secs

     total energy              =     -49.51706046 Ry
     Harris-Foulkes estimate   =     -49.51706863 Ry
     estimated scf accuracy    <       0.00000265 Ry

     iteration # 20     ecut=    20.00 Ry     beta=0.10
     RMM-DIIS diagonalization
     ethr =  1.08E-10,  avg # of iterations =  3.8

     total cpu time spent up to now is       16.1 secs

     total energy              =     -49.51705804 Ry
     Harris-Foulkes estimate   =     -49.51706084 Ry
     estimated scf accuracy    <       0.00000013 Ry

     iteration # 21     ecut=    20.00 Ry     beta=0.10
     RMM-DIIS diagonalization
     ethr =  1.08E-10,  avg # of iterations =  3.1

     total cpu time spent up to now is       16.3 secs

     End of self-consistent calculation

          k = 0.0833 0.0833 0.0000 (  3999 PWs)   bands (ev):

   -10.8523  -7.2767  -7.2767  -5.5681  -5.5681  -4.8276  -3.7906  -2.9171
    -1.6254  -1.5893

          k = 0.0833 0.2500 0.0000 (  4011 PWs)   bands (ev):

   -10.6042  -8.4093  -7.0325  -5.3403  -4.8898  -4.5898  -3.9965  -3.4361
    -2.5211  -1.3583

          k = 0.0833 0.4167 0.0000 (  4016 PWs)   bands (ev):

   -10.1099  -9.3745  -6.5468  -5.8271  -4.8888  -4.2328  -4.1171  -3.4178
    -2.1616  -0.8999

          k = 0.2500 0.2500 0.0000 (  4007 PWs)   bands (ev):

   -10.3564  -8.1650  -8.1650  -6.0103  -4.3523  -3.7745  -3.7745  -2.4605
    -2.2870  -2.2870

          k = 0.2500 0.4167 0.0000 (  4019 PWs)   bands (ev):

    -9.8628  -9.1284  -7.6785  -6.9564  -3.8803  -3.3443  -3.1821  -2.7616
    -1.9619  -1.8211

          k = 0.4167 0.4167 0.0000 (  4005 PWs)   bands (ev):

    -9.3707  -8.6389  -8.6389  -7.9109  -3.4092  -2.7128  -2.7128  -2.0191
    -1.6137  -1.5492

     the Fermi energy is    -3.7502 ev

!    total energy              =     -49.51705719 Ry
     Harris-Foulkes estimate   =     -49.51705807 Ry
     estimated scf accuracy    <          1.2E-09 Ry

     The total energy is the sum of the following terms:

     one-electron contribution =    -320.61510518 Ry
     hartree contribution      =     161.08867881 Ry
     xc contribution           =     -39.22861762 Ry
     ewald contribution        =     149.23211567 Ry
     smearing contrib. (-TS)   =      -0.00017507 Ry
     pot.stat. contrib. (-muN) =       0.00604620 Ry

     convergence has been achieved in  21 iterations

     bfgs converged in   5 scf cycles and   4 bfgs steps
     (criteria: energy <  1.0E-04 Ry, force <  1.0E-03 Ry/Bohr)
     (criteria: force on FCP <  1.0E-02 eV)

     End of BFGS Geometry Optimization

     Final grand-energy   =     -49.5170571922 Ry
Begin final coordinates

ATOMIC_POSITIONS (angstrom)
Al       0.000000000   0.000000000   0.000000000
Al       2.863450038   0.000000000   0.000000000
Al       0.000000000   2.863450038   0.000000000
Al       2.863450038   2.863450038   0.000000000
End final coordinates


     FCP: Total Charge =    -0.021943
     FCP: Fermi Energy =    -0.275634 Ry (   -3.750192 eV)
     FCP: Target Level =    -0.275546 Ry (   -3.749000 eV)
     FCP: Force on FCP =     0.000088 Ry (    0.001192 eV)
     FCP: Force Thr.   =     0.000735 Ry (    0.010000 eV)



     Writing output data file Al001_bc3_FCP_vp05.save

     init_run     :      0.48s CPU      0.49s WALL (       1 calls)
     electrons    :     14.40s CPU     14.60s WALL (       5 calls)
     update_pot   :      0.70s CPU      0.75s WALL (       4 calls)

     Called by init_run:
     wfcinit      :      0.10s CPU      0.11s WALL (       1 calls)
     potinit      :      0.08s CPU      0.09s WALL (       1 calls)

     Called by electrons:
     c_bands      :      9.69s CPU      9.77s WALL (      69 calls)
     sum_band     :      2.49s CPU      2.51s WALL (      69 calls)
     v_of_rho     :      1.62s CPU      1.62s WALL (      70 calls)
     newd         :      0.44s CPU      0.44s WALL (      70 calls)
     mix_rho      :      0.25s CPU      0.25s WALL (      69 calls)

     Called by c_bands:
     init_us_2    :      0.28s CPU      0.28s WALL (     834 calls)
     crmmdiagg    :      6.17s CPU      6.22s WALL (     414 calls)
     wfcrot       :      3.17s CPU      3.20s WALL (     366 calls)
     gsorth       :      0.25s CPU      0.25s WALL (     414 calls)

     Called by sum_band:
     sum_band:bec :      0.00s CPU      0.00s WALL (     414 calls)
     addusdens    :      0.47s CPU      0.47s WALL (      69 calls)

     Called by *rmmdiagg:
     h_psi        :      8.03s CPU      8.08s WALL (    1401 calls)
     s_psi        :      0.21s CPU      0.21s WALL (    1401 calls)
     cdiaghg      :      0.03s CPU      0.03s WALL (     366 calls)

     Called by h_psi:
     h_psi:pot    :      7.99s CPU      8.04s WALL (    1401 calls)
     h_psi:calbec :      0.26s CPU      0.26s WALL (    1401 calls)
     vloc_psi     :      7.52s CPU      7.56s WALL (    1401 calls)
     add_vuspsi   :      0.21s CPU      0.21s WALL (    1401 calls)

     General routines
     calbec       :      0.34s CPU      0.34s WALL (    1815 calls)
     fft          :      0.59s CPU      0.60s WALL (     921 calls)
     fftw         :      8.07s CPU      8.12s WALL (   25530 calls)
     davcio       :      0.00s CPU      0.00s WALL (       6 calls)

     Parallel routines
     fft_scatter  :      2.20s CPU      2.15s WALL (   26451 calls)

     PWSCF        :    15.95s CPU        16.45s WALL


   This run was terminated on:  17:28:31  11Jan2021            

=------------------------------------------------------------------------------=
   JOB DONE.
=------------------------------------------------------------------------------=
