
     Program PWSCF v.6.1 starts on  4Feb2021 at 23:10:52 

     This program is part of the open-source Quantum ESPRESSO suite
     for quantum simulation of materials; please cite
         "P. Giannozzi et al., J. Phys.:Condens. Matter 21 395502 (2009);
          URL http://www.quantum-espresso.org", 
     in publications or presentations arising from this work. More details at
     http://www.quantum-espresso.org/quote

     Parallel version (MPI & OpenMP), running on       4 processor cores
     Number of MPI processes:                 4
     Threads/MPI process:                     1
     R & G space division:  proc/nbgrp/npool/nimage =       4
     Waiting for input...
     Reading input from standard input

     Current dimensions of program PWSCF are:
     Max number of different atomic species (ntypx) = 10
     Max number of k-points (npk) =  40000
     Max angular momentum in pseudopotentials (lmaxx) =  3
     Message from routine iosys:
     mixing_mode=plain is ignored, 'TF' is adopted
     Message from routine iosys:
     accurate eigenvalues are required for all states: diago_full_acc=.TRUE.

     Subspace diagonalization in iterative solution of the eigenvalue problem:
     a serial algorithm will be used

     Found symmetry operation: I + ( -0.5000  0.0000  0.0000)
     This is a supercell, fractional translations are disabled

     Parallelization info
     --------------------
     sticks:   dense  smooth     PW     G-vecs:    dense   smooth      PW
     Min         187     187     54                 8037     8037    1261
     Max         188     188     56                 8044     8044    1262
     Sum         749     749    221                32157    32157    5047



     bravais-lattice index     =            0
     lattice parameter (alat)  =      10.8223  a.u.
     unit-cell volume          =    2655.9321 (a.u.)^3
     number of atoms/cell      =            4
     number of atomic types    =            1
     number of electrons       =        12.00
     number of Kohn-Sham states=           10
     kinetic-energy cutoff     =      20.0000  Ry
     charge density cutoff     =      80.0000  Ry
     convergence threshold     =      1.0E-06
     mixing beta               =       0.1000
     number of iterations used =            8  TF        mixing
     Exchange-correlation      =  SLA  PW   PBE  PBE ( 1  4  3  4 0 0)

     Effective Screening Medium Method
     =================================
     Boundary Conditions: Metal-Slab-Metal
     total charge in unit cell        =   0.0000
     grid points for fit at edges     =        4 


     >>>>> Grand-Canonical SCF is activated <<<<<
     Initial Total Charge  =     0.000000 e
     Target Fermi Energy   =    -4.251000 eV
     Thr. of Fermi Energy  =     0.010000 eV
     Wave-shift of Kerker  =     0.400000 bohr^-1
     Wave-shift of Hartree =     1.500000 bohr^-1
     Mixing Rate of Fermi  =     0.050000

     celldm(1)=  10.822273  celldm(2)=   0.000000  celldm(3)=   0.000000
     celldm(4)=   0.000000  celldm(5)=   0.000000  celldm(6)=   0.000000

     crystal axes: (cart. coord. in units of alat)
               a(1) = (   1.000000   0.000000   0.000000 )  
               a(2) = (   0.000000   1.000000   0.000000 )  
               a(3) = (   0.000000   0.000000   2.095374 )  

     reciprocal axes: (cart. coord. in units 2 pi/alat)
               b(1) = (  1.000000  0.000000  0.000000 )  
               b(2) = (  0.000000  1.000000  0.000000 )  
               b(3) = (  0.000000  0.000000  0.477242 )  


     PseudoPot. # 1 for Al read from file:
     /Users/otani/Program/q-e/git-worktrees/qe-6.1-rism/pseudo/Al.pbe-n-van.UPF
     MD5 check sum: cbc97ad259b400557db688b98a6ada97
     Pseudo is Ultrasoft + core correction, Zval =  3.0
     Generated by new atomic code, or converted to UPF format
     Using radial grid of  893 points,  2 beta functions with: 
                l(1) =   0
                l(2) =   1
     Q(r) pseudized with  8 coefficients,  rinner =    0.900   0.900   0.900


     atomic species   valence    mass     pseudopotential
        Al             3.00    26.98154     Al( 1.00)

     16 Sym. Ops., with inversion, found



   Cartesian axes

     site n.     atom                  positions (alat units)
         1           Al  tau(   1) = (   0.0000000   0.0000000   0.0000000  )
         2           Al  tau(   2) = (   0.5000000   0.0000000   0.0000000  )
         3           Al  tau(   3) = (   0.0000000   0.5000000   0.0000000  )
         4           Al  tau(   4) = (   0.5000000   0.5000000   0.0000000  )

     number of k points=     6  Methfessel-Paxton smearing, width (Ry)=  0.0300
                       cart. coord. in units 2pi/alat
        k(    1) = (   0.0833333   0.0833333   0.0000000), wk =   0.2222222
        k(    2) = (   0.0833333   0.2500000   0.0000000), wk =   0.4444444
        k(    3) = (   0.0833333   0.4166667   0.0000000), wk =   0.4444444
        k(    4) = (   0.2500000   0.2500000   0.0000000), wk =   0.2222222
        k(    5) = (   0.2500000   0.4166667   0.0000000), wk =   0.4444444
        k(    6) = (   0.4166667   0.4166667   0.0000000), wk =   0.2222222

     Dense  grid:    32157 G-vectors     FFT dimensions: (  32,  32,  72)

     Estimated max dynamical RAM per process >       7.08MB

     Estimated total allocated dynamical RAM >      28.32MB

     Check: negative/imaginary core charge=   -0.000012    0.000000

     Initial potential from superposition of free atoms
     Check: negative starting charge=   -0.000169

     starting charge   11.99014, renormalised to   12.00000

     negative rho (up, down):  1.687E-04 0.000E+00
     Starting wfc are   16 randomized atomic wfcs

     total cpu time spent up to now is        0.2 secs

     Self-consistent Calculation

     iteration #  1     ecut=    20.00 Ry     beta=0.10
     Davidson diagonalization with overlap
     ethr =  1.00E-05,  avg # of iterations = 13.0

     negative rho (up, down):  8.438E-05 0.000E+00

     total cpu time spent up to now is        0.4 secs

     total energy              =     -49.54733382 Ry
     Harris-Foulkes estimate   =     -49.55300865 Ry
     estimated scf accuracy    <       0.02466922 Ry

     total charge of GC-SCF    =      -0.00343032 e
     the Fermi energy          =      -5.13578005 eV
                        (error :       0.88478005 eV)

     iteration #  2     ecut=    20.00 Ry     beta=0.10
     Davidson diagonalization with overlap
     ethr =  1.00E-05,  avg # of iterations =  1.0

     total cpu time spent up to now is        0.5 secs

     total energy              =     -49.50507105 Ry
     Harris-Foulkes estimate   =     -49.54650086 Ry
     estimated scf accuracy    <       0.02054916 Ry

     total charge of GC-SCF    =      -0.03789443 e
     the Fermi energy          =      -5.04367992 eV
                        (error :       0.79267992 eV)

     iteration #  3     ecut=    20.00 Ry     beta=0.10
     Davidson diagonalization with overlap
     ethr =  1.00E-05,  avg # of iterations =  6.2

     total cpu time spent up to now is        0.6 secs

     total energy              =     -49.51645106 Ry
     Harris-Foulkes estimate   =     -49.51653621 Ry
     estimated scf accuracy    <       0.00053154 Ry

     total charge of GC-SCF    =      -0.03418190 e
     the Fermi energy          =      -4.07351034 eV
                        (error :       0.17748966 eV)

     iteration #  4     ecut=    20.00 Ry     beta=0.10
     Davidson diagonalization with overlap
     ethr =  4.42E-06,  avg # of iterations =  1.8

     total cpu time spent up to now is        0.7 secs

     total energy              =     -49.51667891 Ry
     Harris-Foulkes estimate   =     -49.51644722 Ry
     estimated scf accuracy    <       0.00028789 Ry

     total charge of GC-SCF    =      -0.03017965 e
     the Fermi energy          =      -4.16590178 eV
                        (error :       0.08509822 eV)

     iteration #  5     ecut=    20.00 Ry     beta=0.10
     Davidson diagonalization with overlap
     ethr =  2.39E-06,  avg # of iterations =  3.2

     total cpu time spent up to now is        0.8 secs

     total energy              =     -49.51688611 Ry
     Harris-Foulkes estimate   =     -49.51687843 Ry
     estimated scf accuracy    <       0.00001040 Ry

     total charge of GC-SCF    =      -0.02924619 e
     the Fermi energy          =      -4.10938225 eV
                        (error :       0.14161775 eV)

     iteration #  6     ecut=    20.00 Ry     beta=0.10
     Davidson diagonalization with overlap
     ethr =  8.64E-08,  avg # of iterations = 10.0

     total cpu time spent up to now is        0.9 secs

     total energy              =     -49.51693490 Ry
     Harris-Foulkes estimate   =     -49.51687434 Ry
     estimated scf accuracy    <       0.00001190 Ry

     total charge of GC-SCF    =      -0.02485682 e
     the Fermi energy          =      -4.12864169 eV
                        (error :       0.12235831 eV)

     iteration #  7     ecut=    20.00 Ry     beta=0.10
     Davidson diagonalization with overlap
     ethr =  8.64E-08,  avg # of iterations =  3.0

     total cpu time spent up to now is        1.0 secs

     total energy              =     -49.51697412 Ry
     Harris-Foulkes estimate   =     -49.51694057 Ry
     estimated scf accuracy    <       0.00001579 Ry

     total charge of GC-SCF    =      -0.02029377 e
     the Fermi energy          =      -4.14912846 eV
                        (error :       0.10187154 eV)

     iteration #  8     ecut=    20.00 Ry     beta=0.10
     Davidson diagonalization with overlap
     ethr =  8.64E-08,  avg # of iterations =  3.0

     total cpu time spent up to now is        1.1 secs

     total energy              =     -49.51703850 Ry
     Harris-Foulkes estimate   =     -49.51705026 Ry
     estimated scf accuracy    <       0.00000210 Ry

     total charge of GC-SCF    =      -0.01553022 e
     the Fermi energy          =      -4.13372980 eV
                        (error :       0.11727020 eV)

     iteration #  9     ecut=    20.00 Ry     beta=0.10
     Davidson diagonalization with overlap
     ethr =  1.75E-08,  avg # of iterations =  4.7

     total cpu time spent up to now is        1.2 secs

     total energy              =     -49.51691075 Ry
     Harris-Foulkes estimate   =     -49.51705230 Ry
     estimated scf accuracy    <       0.00000287 Ry

     total charge of GC-SCF    =      -0.00812742 e
     the Fermi energy          =      -4.15003686 eV
                        (error :       0.10096314 eV)

     iteration # 10     ecut=    20.00 Ry     beta=0.10
     Davidson diagonalization with overlap
     ethr =  1.75E-08,  avg # of iterations =  5.0

     total cpu time spent up to now is        1.3 secs

     total energy              =     -49.51687955 Ry
     Harris-Foulkes estimate   =     -49.51690851 Ry
     estimated scf accuracy    <       0.00000423 Ry

     total charge of GC-SCF    =      -0.00660484 e
     the Fermi energy          =      -4.22105648 eV
                        (error :       0.02994352 eV)

     iteration # 11     ecut=    20.00 Ry     beta=0.10
     Davidson diagonalization with overlap
     ethr =  1.75E-08,  avg # of iterations =  1.0

     total cpu time spent up to now is        1.4 secs

     total energy              =     -49.51676481 Ry
     Harris-Foulkes estimate   =     -49.51688070 Ry
     estimated scf accuracy    <       0.00000352 Ry

     total charge of GC-SCF    =      -0.00243821 e
     the Fermi energy          =      -4.22611158 eV
                        (error :       0.02488842 eV)

     iteration # 12     ecut=    20.00 Ry     beta=0.10
     Davidson diagonalization with overlap
     ethr =  1.75E-08,  avg # of iterations =  2.2

     total cpu time spent up to now is        1.5 secs

     total energy              =     -49.51675203 Ry
     Harris-Foulkes estimate   =     -49.51676830 Ry
     estimated scf accuracy    <       0.00000014 Ry

     total charge of GC-SCF    =      -0.00184812 e
     the Fermi energy          =      -4.23682868 eV
                        (error :       0.01417132 eV)

     iteration # 13     ecut=    20.00 Ry     beta=0.10
     Davidson diagonalization with overlap
     ethr =  1.16E-09,  avg # of iterations =  9.2

     total cpu time spent up to now is        1.6 secs

     End of self-consistent calculation

          k = 0.0833 0.0833 0.0000 (  3999 PWs)   bands (ev):

   -11.3430  -7.7674  -7.7674  -6.0591  -6.0591  -5.3026  -4.2817  -3.4090
    -2.1153  -2.0672

          k = 0.0833 0.2500 0.0000 (  4011 PWs)   bands (ev):

   -11.0949  -8.9001  -7.5233  -5.8314  -5.3807  -5.0650  -4.4876  -3.9275
    -2.9975  -1.8363

          k = 0.0833 0.4167 0.0000 (  4016 PWs)   bands (ev):

   -10.6006  -9.8652  -7.0376  -6.3179  -5.3799  -4.7240  -4.5925  -3.8936
    -2.6527  -1.3781

          k = 0.2500 0.2500 0.0000 (  4007 PWs)   bands (ev):

   -10.8471  -8.6557  -8.6557  -6.5011  -4.8276  -4.2656  -4.2656  -2.9523
    -2.7635  -2.7635

          k = 0.2500 0.4167 0.0000 (  4019 PWs)   bands (ev):

   -10.3535  -9.6192  -8.1693  -7.4472  -4.3558  -3.8355  -3.6579  -3.2531
    -2.4531  -2.2978

          k = 0.4167 0.4167 0.0000 (  4005 PWs)   bands (ev):

    -9.8615  -9.1297  -9.1297  -8.4017  -3.8848  -3.1889  -3.1889  -2.4955
    -2.1051  -2.1051

     the Fermi energy is    -4.2419 ev

!    total energy              =     -49.51666950 Ry
     Harris-Foulkes estimate   =     -49.51675187 Ry
     estimated scf accuracy    <       0.00000024 Ry

     total charge of GC-SCF    =      -0.00015523 e

     The total energy is the sum of the following terms:

     one-electron contribution =    -144.99832039 Ry
     hartree contribution      =      73.06102639 Ry
     xc contribution           =     -39.22112819 Ry
     ewald contribution        =      61.64193118 Ry
     smearing contrib. (-TS)   =      -0.00022699 Ry
     pot.stat. contrib. (-muN) =       0.00004850 Ry

     convergence has been achieved in  13 iterations

     Forces acting on atoms (cartesian axes, Ry/au):

     atom    1 type  1   force =     0.00000000    0.00000000    0.00000000
     atom    2 type  1   force =     0.00000000    0.00000000    0.00000000
     atom    3 type  1   force =     0.00000000    0.00000000    0.00000000
     atom    4 type  1   force =     0.00000000    0.00000000    0.00000000

     Total force =     0.000000     Total SCF correction =     0.000000

     Writing output data file Al001_bc2_GCSCF_v00.save

     init_run     :      0.13s CPU      0.13s WALL (       1 calls)
     electrons    :      1.41s CPU      1.45s WALL (       1 calls)
     forces       :      0.06s CPU      0.07s WALL (       1 calls)

     Called by init_run:
     wfcinit      :      0.03s CPU      0.03s WALL (       1 calls)
     potinit      :      0.02s CPU      0.02s WALL (       1 calls)

     Called by electrons:
     c_bands      :      1.09s CPU      1.12s WALL (      13 calls)
     sum_band     :      0.16s CPU      0.16s WALL (      13 calls)
     v_of_rho     :      0.11s CPU      0.12s WALL (      14 calls)
     newd         :      0.03s CPU      0.03s WALL (      14 calls)
     mix_rho      :      0.02s CPU      0.02s WALL (      13 calls)

     Called by c_bands:
     init_us_2    :      0.02s CPU      0.02s WALL (     168 calls)
     cegterg      :      1.07s CPU      1.09s WALL (      80 calls)

     Called by sum_band:
     sum_band:bec :      0.00s CPU      0.00s WALL (      78 calls)
     addusdens    :      0.03s CPU      0.04s WALL (      13 calls)

     Called by *egterg:
     h_psi        :      0.80s CPU      0.82s WALL (     465 calls)
     s_psi        :      0.02s CPU      0.02s WALL (     465 calls)
     g_psi        :      0.01s CPU      0.01s WALL (     379 calls)
     cdiaghg      :      0.08s CPU      0.08s WALL (     459 calls)

     Called by h_psi:
     h_psi:pot    :      0.79s CPU      0.81s WALL (     465 calls)
     h_psi:calbec :      0.03s CPU      0.03s WALL (     465 calls)
     vloc_psi     :      0.74s CPU      0.75s WALL (     465 calls)
     add_vuspsi   :      0.02s CPU      0.02s WALL (     465 calls)

     General routines
     calbec       :      0.04s CPU      0.04s WALL (     567 calls)
     fft          :      0.05s CPU      0.05s WALL (     192 calls)
     fftw         :      0.72s CPU      0.73s WALL (    7426 calls)
     davcio       :      0.00s CPU      0.00s WALL (       6 calls)

     Parallel routines
     fft_scatter  :      0.32s CPU      0.33s WALL (    7618 calls)

     PWSCF        :     1.64s CPU         1.71s WALL


   This run was terminated on:  23:10:54   4Feb2021            

=------------------------------------------------------------------------------=
   JOB DONE.
=------------------------------------------------------------------------------=
