
     Program PWSCF v.6.1 starts on  4Feb2021 at 23:11: 5 

     This program is part of the open-source Quantum ESPRESSO suite
     for quantum simulation of materials; please cite
         "P. Giannozzi et al., J. Phys.:Condens. Matter 21 395502 (2009);
          URL http://www.quantum-espresso.org", 
     in publications or presentations arising from this work. More details at
     http://www.quantum-espresso.org/quote

     Parallel version (MPI & OpenMP), running on       4 processor cores
     Number of MPI processes:                 4
     Threads/MPI process:                     1
     R & G space division:  proc/nbgrp/npool/nimage =       4
     Waiting for input...
     Reading input from standard input

     Current dimensions of program PWSCF are:
     Max number of different atomic species (ntypx) = 10
     Max number of k-points (npk) =  40000
     Max angular momentum in pseudopotentials (lmaxx) =  3
     Message from routine iosys:
     mixing_mode=plain is ignored, 'TF' is adopted
     Message from routine iosys:
     accurate eigenvalues are required for all states: diago_full_acc=.TRUE.

     Subspace diagonalization in iterative solution of the eigenvalue problem:
     a serial algorithm will be used

     Found symmetry operation: I + ( -0.5000  0.0000  0.0000)
     This is a supercell, fractional translations are disabled

     Parallelization info
     --------------------
     sticks:   dense  smooth     PW     G-vecs:    dense   smooth      PW
     Min         187     187     54                 8037     8037    1261
     Max         188     188     56                 8044     8044    1262
     Sum         749     749    221                32157    32157    5047



     bravais-lattice index     =            0
     lattice parameter (alat)  =      10.8223  a.u.
     unit-cell volume          =    2655.9321 (a.u.)^3
     number of atoms/cell      =            4
     number of atomic types    =            1
     number of electrons       =        12.00
     number of Kohn-Sham states=           10
     kinetic-energy cutoff     =      20.0000  Ry
     charge density cutoff     =      80.0000  Ry
     convergence threshold     =      1.0E-06
     mixing beta               =       0.3000
     number of iterations used =            8  TF        mixing
     Exchange-correlation      =  SLA  PW   PBE  PBE ( 1  4  3  4 0 0)

     Effective Screening Medium Method
     =================================
     Boundary Conditions: Metal-Slab-Metal
     total charge in unit cell        =   0.0000
     grid points for fit at edges     =        4 


     >>>>> Grand-Canonical SCF is activated <<<<<
     Initial Total Charge  =     0.000000 e
     Target Fermi Energy   =    -4.751000 eV
     Thr. of Fermi Energy  =     0.010000 eV
     Wave-shift of Kerker  =     0.400000 bohr^-1
     Wave-shift of Hartree =     1.500000 bohr^-1
     Mixing Rate of Fermi  =     0.050000

     celldm(1)=  10.822273  celldm(2)=   0.000000  celldm(3)=   0.000000
     celldm(4)=   0.000000  celldm(5)=   0.000000  celldm(6)=   0.000000

     crystal axes: (cart. coord. in units of alat)
               a(1) = (   1.000000   0.000000   0.000000 )  
               a(2) = (   0.000000   1.000000   0.000000 )  
               a(3) = (   0.000000   0.000000   2.095374 )  

     reciprocal axes: (cart. coord. in units 2 pi/alat)
               b(1) = (  1.000000  0.000000  0.000000 )  
               b(2) = (  0.000000  1.000000  0.000000 )  
               b(3) = (  0.000000  0.000000  0.477242 )  


     PseudoPot. # 1 for Al read from file:
     /Users/otani/Program/q-e/git-worktrees/qe-6.1-rism/pseudo/Al.pbe-n-van.UPF
     MD5 check sum: cbc97ad259b400557db688b98a6ada97
     Pseudo is Ultrasoft + core correction, Zval =  3.0
     Generated by new atomic code, or converted to UPF format
     Using radial grid of  893 points,  2 beta functions with: 
                l(1) =   0
                l(2) =   1
     Q(r) pseudized with  8 coefficients,  rinner =    0.900   0.900   0.900


     atomic species   valence    mass     pseudopotential
        Al             3.00    26.98154     Al( 1.00)

     16 Sym. Ops., with inversion, found



   Cartesian axes

     site n.     atom                  positions (alat units)
         1           Al  tau(   1) = (   0.0000000   0.0000000   0.0000000  )
         2           Al  tau(   2) = (   0.5000000   0.0000000   0.0000000  )
         3           Al  tau(   3) = (   0.0000000   0.5000000   0.0000000  )
         4           Al  tau(   4) = (   0.5000000   0.5000000   0.0000000  )

     number of k points=     6  Methfessel-Paxton smearing, width (Ry)=  0.0300
                       cart. coord. in units 2pi/alat
        k(    1) = (   0.0833333   0.0833333   0.0000000), wk =   0.2222222
        k(    2) = (   0.0833333   0.2500000   0.0000000), wk =   0.4444444
        k(    3) = (   0.0833333   0.4166667   0.0000000), wk =   0.4444444
        k(    4) = (   0.2500000   0.2500000   0.0000000), wk =   0.2222222
        k(    5) = (   0.2500000   0.4166667   0.0000000), wk =   0.4444444
        k(    6) = (   0.4166667   0.4166667   0.0000000), wk =   0.2222222

     Dense  grid:    32157 G-vectors     FFT dimensions: (  32,  32,  72)

     Estimated max dynamical RAM per process >       7.08MB

     Estimated total allocated dynamical RAM >      28.32MB

     Check: negative/imaginary core charge=   -0.000012    0.000000

     Initial potential from superposition of free atoms
     Check: negative starting charge=   -0.000169

     starting charge   11.99014, renormalised to   12.00000

     negative rho (up, down):  1.687E-04 0.000E+00
     Starting wfc are   16 randomized atomic wfcs

     total cpu time spent up to now is        0.3 secs

     Self-consistent Calculation

     iteration #  1     ecut=    20.00 Ry     beta=0.30
     Davidson diagonalization with overlap
     ethr =  1.00E-05,  avg # of iterations = 13.0

     negative rho (up, down):  8.518E-06 0.000E+00

     total cpu time spent up to now is        0.7 secs

     total energy              =     -49.53076094 Ry
     Harris-Foulkes estimate   =     -49.54387106 Ry
     estimated scf accuracy    <       0.02397091 Ry

     total charge of GC-SCF    =      -0.00480726 e
     the Fermi energy          =      -5.16078005 eV
                        (error :       0.40978005 eV)

     iteration #  2     ecut=    20.00 Ry     beta=0.30
     Davidson diagonalization with overlap
     ethr =  1.00E-05,  avg # of iterations =  2.2

     total cpu time spent up to now is        0.8 secs

     total energy              =     -49.51125640 Ry
     Harris-Foulkes estimate   =     -49.53079838 Ry
     estimated scf accuracy    <       0.01251281 Ry

     total charge of GC-SCF    =      -0.01344444 e
     the Fermi energy          =      -4.96229775 eV
                        (error :       0.21129775 eV)

     iteration #  3     ecut=    20.00 Ry     beta=0.30
     Davidson diagonalization with overlap
     ethr =  1.00E-05,  avg # of iterations =  4.7

     total cpu time spent up to now is        1.1 secs

     total energy              =     -49.51778621 Ry
     Harris-Foulkes estimate   =     -49.51758301 Ry
     estimated scf accuracy    <       0.00020960 Ry

     total charge of GC-SCF    =      -0.00148817 e
     the Fermi energy          =      -4.45455277 eV
                        (error :       0.29644723 eV)

     iteration #  4     ecut=    20.00 Ry     beta=0.30
     Davidson diagonalization with overlap
     ethr =  1.75E-06,  avg # of iterations =  6.8

     total cpu time spent up to now is        1.3 secs

     total energy              =     -49.51776822 Ry
     Harris-Foulkes estimate   =     -49.51779488 Ry
     estimated scf accuracy    <       0.00005730 Ry

     total charge of GC-SCF    =       0.00352238 e
     the Fermi energy          =      -4.54147833 eV
                        (error :       0.20952167 eV)

     iteration #  5     ecut=    20.00 Ry     beta=0.30
     Davidson diagonalization with overlap
     ethr =  4.78E-07,  avg # of iterations =  3.5

     total cpu time spent up to now is        1.4 secs

     total energy              =     -49.51786725 Ry
     Harris-Foulkes estimate   =     -49.51785066 Ry
     estimated scf accuracy    <       0.00001094 Ry

     total charge of GC-SCF    =       0.01369477 e
     the Fermi energy          =      -4.54333299 eV
                        (error :       0.20766701 eV)

     iteration #  6     ecut=    20.00 Ry     beta=0.30
     Davidson diagonalization with overlap
     ethr =  9.13E-08,  avg # of iterations =  5.0

     total cpu time spent up to now is        1.7 secs

     total energy              =     -49.51790208 Ry
     Harris-Foulkes estimate   =     -49.51790571 Ry
     estimated scf accuracy    <       0.00000403 Ry

     total charge of GC-SCF    =       0.02222048 e
     the Fermi energy          =      -4.58471818 eV
                        (error :       0.16628182 eV)

     iteration #  7     ecut=    20.00 Ry     beta=0.30
     Davidson diagonalization with overlap
     ethr =  3.36E-08,  avg # of iterations =  5.8

     total cpu time spent up to now is        1.9 secs

     total energy              =     -49.51770755 Ry
     Harris-Foulkes estimate   =     -49.51790176 Ry
     estimated scf accuracy    <       0.00000149 Ry

     total charge of GC-SCF    =       0.03937404 e
     the Fermi energy          =      -4.63139325 eV
                        (error :       0.11960675 eV)

     iteration #  8     ecut=    20.00 Ry     beta=0.30
     Davidson diagonalization with overlap
     ethr =  1.24E-08,  avg # of iterations =  6.2

     total cpu time spent up to now is        2.1 secs

     total energy              =     -49.51771061 Ry
     Harris-Foulkes estimate   =     -49.51771086 Ry
     estimated scf accuracy    <       0.00000043 Ry

     total charge of GC-SCF    =       0.03928108 e
     the Fermi energy          =      -4.73057763 eV
                        (error :       0.02042237 eV)

     iteration #  9     ecut=    20.00 Ry     beta=0.30
     Davidson diagonalization with overlap
     ethr =  3.56E-09,  avg # of iterations =  2.8

     total cpu time spent up to now is        2.2 secs

     total energy              =     -49.51760825 Ry
     Harris-Foulkes estimate   =     -49.51771065 Ry
     estimated scf accuracy    <       0.00000041 Ry

     total charge of GC-SCF    =       0.04174196 e
     the Fermi energy          =      -4.73000383 eV
                        (error :       0.02099617 eV)

     iteration # 10     ecut=    20.00 Ry     beta=0.30
     Davidson diagonalization with overlap
     ethr =  3.44E-09,  avg # of iterations =  5.3

     total cpu time spent up to now is        2.3 secs

     End of self-consistent calculation

          k = 0.0833 0.0833 0.0000 (  3999 PWs)   bands (ev):

   -11.8405  -8.2651  -8.2651  -6.5571  -6.5571  -5.7712  -4.7801  -3.9084
    -2.6120  -2.5412

          k = 0.0833 0.2500 0.0000 (  4011 PWs)   bands (ev):

   -11.5924  -9.3977  -8.0210  -6.3294  -5.8787  -5.5337  -4.9857  -4.4262
    -3.4687  -2.3106

          k = 0.0833 0.4167 0.0000 (  4016 PWs)   bands (ev):

   -11.0982 -10.3628  -7.5353  -6.8157  -5.8780  -5.2223  -5.0616  -4.3634
    -3.1510  -1.8528

          k = 0.2500 0.2500 0.0000 (  4007 PWs)   bands (ev):

   -11.3446  -9.1534  -9.1534  -6.9990  -5.2965  -4.7637  -4.7637  -3.4518
    -3.2349  -3.2349

          k = 0.2500 0.4167 0.0000 (  4019 PWs)   bands (ev):

   -10.8511 -10.1168  -8.6670  -7.9449  -4.8251  -4.3339  -4.1279  -3.7518
    -2.9515  -2.7696

          k = 0.4167 0.4167 0.0000 (  4005 PWs)   bands (ev):

   -10.3590  -9.6273  -9.6273  -8.8993  -4.3546  -3.6593  -3.6593  -2.9667
    -2.6039  -2.6039

     the Fermi energy is    -4.7421 ev

!    total energy              =     -49.51747491 Ry
     Harris-Foulkes estimate   =     -49.51760847 Ry
     estimated scf accuracy    <       0.00000035 Ry

     total charge of GC-SCF    =       0.04341962 e

     The total energy is the sum of the following terms:

     one-electron contribution =    -144.55990897 Ry
     hartree contribution      =      72.62139734 Ry
     xc contribution           =     -39.20536226 Ry
     ewald contribution        =      61.64193118 Ry
     smearing contrib. (-TS)   =      -0.00037041 Ry
     pot.stat. contrib. (-muN) =      -0.01516179 Ry

     convergence has been achieved in  10 iterations

     Forces acting on atoms (cartesian axes, Ry/au):

     atom    1 type  1   force =     0.00000000    0.00000000    0.00000000
     atom    2 type  1   force =     0.00000000    0.00000000    0.00000000
     atom    3 type  1   force =     0.00000000    0.00000000    0.00000000
     atom    4 type  1   force =     0.00000000    0.00000000    0.00000000

     Total force =     0.000000     Total SCF correction =     0.000000

     Writing output data file Al001_bc2_GCSCF_vp05.save

     init_run     :      0.21s CPU      0.24s WALL (       1 calls)
     electrons    :      1.83s CPU      1.98s WALL (       1 calls)
     forces       :      0.07s CPU      0.08s WALL (       1 calls)

     Called by init_run:
     wfcinit      :      0.06s CPU      0.06s WALL (       1 calls)
     potinit      :      0.03s CPU      0.03s WALL (       1 calls)

     Called by electrons:
     c_bands      :      1.45s CPU      1.56s WALL (      10 calls)
     sum_band     :      0.21s CPU      0.22s WALL (      10 calls)
     v_of_rho     :      0.12s CPU      0.13s WALL (      11 calls)
     newd         :      0.04s CPU      0.04s WALL (      11 calls)
     mix_rho      :      0.03s CPU      0.03s WALL (      10 calls)

     Called by c_bands:
     init_us_2    :      0.02s CPU      0.02s WALL (     132 calls)
     cegterg      :      1.41s CPU      1.52s WALL (      61 calls)

     Called by sum_band:
     sum_band:bec :      0.00s CPU      0.00s WALL (      60 calls)
     addusdens    :      0.04s CPU      0.04s WALL (      10 calls)

     Called by *egterg:
     h_psi        :      1.08s CPU      1.16s WALL (     399 calls)
     s_psi        :      0.02s CPU      0.03s WALL (     399 calls)
     g_psi        :      0.01s CPU      0.01s WALL (     332 calls)
     cdiaghg      :      0.09s CPU      0.10s WALL (     393 calls)

     Called by h_psi:
     h_psi:pot    :      1.07s CPU      1.14s WALL (     399 calls)
     h_psi:calbec :      0.05s CPU      0.05s WALL (     399 calls)
     vloc_psi     :      0.99s CPU      1.06s WALL (     399 calls)
     add_vuspsi   :      0.03s CPU      0.03s WALL (     399 calls)

     General routines
     calbec       :      0.06s CPU      0.06s WALL (     483 calls)
     fft          :      0.07s CPU      0.07s WALL (     153 calls)
     fftw         :      0.97s CPU      1.03s WALL (    5798 calls)
     davcio       :      0.00s CPU      0.00s WALL (       6 calls)

     Parallel routines
     fft_scatter  :      0.52s CPU      0.56s WALL (    5951 calls)

     PWSCF        :     2.17s CPU         2.40s WALL


   This run was terminated on:  23:11: 7   4Feb2021            

=------------------------------------------------------------------------------=
   JOB DONE.
=------------------------------------------------------------------------------=
