
     Program PWSCF v.6.1 starts on 11Jan2021 at 17:27:57 

     This program is part of the open-source Quantum ESPRESSO suite
     for quantum simulation of materials; please cite
         "P. Giannozzi et al., J. Phys.:Condens. Matter 21 395502 (2009);
          URL http://www.quantum-espresso.org", 
     in publications or presentations arising from this work. More details at
     http://www.quantum-espresso.org/quote

     Parallel version (MPI), running on     4 processors
     R & G space division:  proc/nbgrp/npool/nimage =       4
     Waiting for input...
     Reading input from standard input

     Current dimensions of program PWSCF are:
     Max number of different atomic species (ntypx) = 10
     Max number of k-points (npk) =  40000
     Max angular momentum in pseudopotentials (lmaxx) =  3

     Subspace diagonalization in iterative solution of the eigenvalue problem:
     a serial algorithm will be used

     Found symmetry operation: I + ( -0.5000  0.0000  0.0000)
     This is a supercell, fractional translations are disabled

     Parallelization info
     --------------------
     sticks:   dense  smooth     PW     G-vecs:    dense   smooth      PW
     Min         187     187     54                 8037     8037    1261
     Max         188     188     56                 8044     8044    1262
     Sum         749     749    221                32157    32157    5047



     bravais-lattice index     =            0
     lattice parameter (alat)  =      10.8223  a.u.
     unit-cell volume          =    2655.9321 (a.u.)^3
     number of atoms/cell      =            4
     number of atomic types    =            1
     number of electrons       =        12.00
     number of Kohn-Sham states=           10
     kinetic-energy cutoff     =      20.0000  Ry
     charge density cutoff     =      80.0000  Ry
     convergence threshold     =      1.0E-06
     mixing beta               =       0.1000
     number of iterations used =            8  plain     mixing
     Exchange-correlation      =  SLA  PW   PBE  PBE ( 1  4  3  4 0 0)
     nstep                     =           50


     Effective Screening Medium Method
     =================================
     Boundary Conditions: Metal-Slab-Metal
     total charge in unit cell        =   0.0000
     grid points for fit at edges     =        4 


     >>>> FCP Relaxation is activated <<<<<
     Initial Total Charge =     0.000000 e
     Target Fermi Energy  =    -0.349192 Ry
                          =    -4.751000 eV

     celldm(1)=  10.822273  celldm(2)=   0.000000  celldm(3)=   0.000000
     celldm(4)=   0.000000  celldm(5)=   0.000000  celldm(6)=   0.000000

     crystal axes: (cart. coord. in units of alat)
               a(1) = (   1.000000   0.000000   0.000000 )  
               a(2) = (   0.000000   1.000000   0.000000 )  
               a(3) = (   0.000000   0.000000   2.095374 )  

     reciprocal axes: (cart. coord. in units 2 pi/alat)
               b(1) = (  1.000000  0.000000  0.000000 )  
               b(2) = (  0.000000  1.000000  0.000000 )  
               b(3) = (  0.000000  0.000000  0.477242 )  


     PseudoPot. # 1 for Al read from file:
     /home1/gler/share/qe-6.1-rism/pseudo/Al.pbe-n-van.UPF
     MD5 check sum: b11ded24487aef5bc42d5c7a2e22a7b6
     Pseudo is Ultrasoft + core correction, Zval =  3.0
     Generated by new atomic code, or converted to UPF format
     Using radial grid of  893 points,  2 beta functions with: 
                l(1) =   0
                l(2) =   1
     Q(r) pseudized with  8 coefficients,  rinner =    0.900   0.900   0.900


     atomic species   valence    mass     pseudopotential
        Al             3.00    26.98154     Al( 1.00)

     16 Sym. Ops., with inversion, found



   Cartesian axes

     site n.     atom                  positions (alat units)
         1           Al  tau(   1) = (   0.0000000   0.0000000   0.0000000  )
         2           Al  tau(   2) = (   0.5000000   0.0000000   0.0000000  )
         3           Al  tau(   3) = (   0.0000000   0.5000000   0.0000000  )
         4           Al  tau(   4) = (   0.5000000   0.5000000   0.0000000  )

     number of k points=     6  Methfessel-Paxton smearing, width (Ry)=  0.0300
                       cart. coord. in units 2pi/alat
        k(    1) = (   0.0833333   0.0833333   0.0000000), wk =   0.2222222
        k(    2) = (   0.0833333   0.2500000   0.0000000), wk =   0.4444444
        k(    3) = (   0.0833333   0.4166667   0.0000000), wk =   0.4444444
        k(    4) = (   0.2500000   0.2500000   0.0000000), wk =   0.2222222
        k(    5) = (   0.2500000   0.4166667   0.0000000), wk =   0.4444444
        k(    6) = (   0.4166667   0.4166667   0.0000000), wk =   0.2222222

     Dense  grid:    32157 G-vectors     FFT dimensions: (  32,  32,  72)

     Estimated max dynamical RAM per process >       8.41MB

     Estimated total allocated dynamical RAM >      33.64MB

     Check: negative/imaginary core charge=   -0.000012    0.000000

     Initial potential from superposition of free atoms
     Check: negative starting charge=   -0.000169

     starting charge   11.99014, renormalised to   12.00000

     negative rho (up, down):  1.687E-04 0.000E+00
     Starting wfc are   16 randomized atomic wfcs

     total cpu time spent up to now is        0.5 secs

     per-process dynamical memory:     6.6 Mb

     Self-consistent Calculation

     iteration #  1     ecut=    20.00 Ry     beta=0.10
     RMM-DIIS diagonalization
     ethr =  1.00E-02,  avg # of iterations =  2.3

     Threshold (ethr) on eigenvalues was too large:
     Diagonalizing with lowered threshold

     RMM-DIIS diagonalization
     ethr =  5.22E-04,  avg # of iterations =  2.1

     negative rho (up, down):  1.411E-04 0.000E+00

     total cpu time spent up to now is        1.0 secs

     total energy              =     -49.53187404 Ry
     Harris-Foulkes estimate   =     -49.53893296 Ry
     estimated scf accuracy    <       0.07723161 Ry

     iteration #  2     ecut=    20.00 Ry     beta=0.10
     RMM-DIIS diagonalization
     ethr =  6.44E-04,  avg # of iterations =  2.5

     negative rho (up, down):  1.510E-05 0.000E+00

     total cpu time spent up to now is        1.2 secs

     total energy              =     -49.50863969 Ry
     Harris-Foulkes estimate   =     -49.53338168 Ry
     estimated scf accuracy    <       0.05719887 Ry

     iteration #  3     ecut=    20.00 Ry     beta=0.10
     RMM-DIIS diagonalization
     ethr =  4.77E-04,  avg # of iterations =  2.5

     negative rho (up, down):  1.806E-05 0.000E+00

     total cpu time spent up to now is        1.4 secs

     total energy              =     -49.51611461 Ry
     Harris-Foulkes estimate   =     -49.51662535 Ry
     estimated scf accuracy    <       0.00219639 Ry

     iteration #  4     ecut=    20.00 Ry     beta=0.10
     RMM-DIIS diagonalization
     ethr =  1.83E-05,  avg # of iterations =  3.5

     negative rho (up, down):  1.075E-07 0.000E+00

     total cpu time spent up to now is        1.7 secs

     total energy              =     -49.51645951 Ry
     Harris-Foulkes estimate   =     -49.51708623 Ry
     estimated scf accuracy    <       0.00187284 Ry

     iteration #  5     ecut=    20.00 Ry     beta=0.10
     RMM-DIIS diagonalization
     ethr =  1.56E-05,  avg # of iterations =  2.6

     negative rho (up, down):  2.424E-08 0.000E+00

     total cpu time spent up to now is        1.9 secs

     total energy              =     -49.51664184 Ry
     Harris-Foulkes estimate   =     -49.51664272 Ry
     estimated scf accuracy    <       0.00002750 Ry

     iteration #  6     ecut=    20.00 Ry     beta=0.10
     RMM-DIIS diagonalization
     ethr =  2.29E-07,  avg # of iterations =  4.2

     total cpu time spent up to now is        2.2 secs

     total energy              =     -49.51667240 Ry
     Harris-Foulkes estimate   =     -49.51667170 Ry
     estimated scf accuracy    <       0.00002096 Ry

     iteration #  7     ecut=    20.00 Ry     beta=0.10
     RMM-DIIS diagonalization
     ethr =  1.75E-07,  avg # of iterations =  2.5

     total cpu time spent up to now is        2.4 secs

     total energy              =     -49.51666835 Ry
     Harris-Foulkes estimate   =     -49.51667289 Ry
     estimated scf accuracy    <       0.00001173 Ry

     iteration #  8     ecut=    20.00 Ry     beta=0.10
     RMM-DIIS diagonalization
     ethr =  9.78E-08,  avg # of iterations =  2.5

     total cpu time spent up to now is        2.6 secs

     End of self-consistent calculation

          k = 0.0833 0.0833 0.0000 (  3999 PWs)   bands (ev):

   -11.3516  -7.7762  -7.7761  -6.0676  -6.0676  -5.3120  -4.2903  -3.4174
    -2.1242  -2.0766

          k = 0.0833 0.2500 0.0000 (  4011 PWs)   bands (ev):

   -11.1035  -8.9087  -7.5320  -5.8399  -5.3893  -5.0743  -4.4961  -3.9360
    -3.0069  -1.8457

          k = 0.0833 0.4167 0.0000 (  4016 PWs)   bands (ev):

   -10.6092  -9.8738  -7.0463  -6.3265  -5.3884  -4.7325  -4.6018  -3.9029
    -2.6613  -1.3876

          k = 0.2500 0.2500 0.0000 (  4007 PWs)   bands (ev):

   -10.8557  -8.6644  -8.6643  -6.5098  -4.8369  -4.2741  -4.2741  -2.9608
    -2.7729  -2.7729

          k = 0.2500 0.4167 0.0000 (  4019 PWs)   bands (ev):

   -10.3621  -9.6278  -8.1779  -7.4558  -4.3652  -3.8440  -3.6673  -3.2615
    -2.4616  -2.3072

          k = 0.4167 0.4167 0.0000 (  4005 PWs)   bands (ev):

    -9.8701  -9.1383  -9.1383  -8.4103  -3.8942  -3.1982  -3.1982  -2.5045
    -2.1136  -2.0495

     the Fermi energy is    -4.2508 ev

!    total energy              =     -49.51666962 Ry
     Harris-Foulkes estimate   =     -49.51666943 Ry
     estimated scf accuracy    <       0.00000009 Ry

     The total energy is the sum of the following terms:

     one-electron contribution =    -144.99506129 Ry
     hartree contribution      =      73.05761705 Ry
     xc contribution           =     -39.22093058 Ry
     ewald contribution        =      61.64193118 Ry
     smearing contrib. (-TS)   =      -0.00022599 Ry
     pot.stat. contrib. (-muN) =      -0.00000000 Ry

     convergence has been achieved in   8 iterations

     BFGS Geometry Optimization

     number of scf cycles    =   1
     number of bfgs steps    =   0

     grand-energy   new      =     -49.5166696191 Ry

     new trust radius        =       0.1838200810 bohr
     new conv_thr            =       0.0000010000 Ry


ATOMIC_POSITIONS (angstrom)
Al       0.000000000   0.000000000   0.000000000
Al       2.863450038   0.000000000   0.000000000
Al       0.000000000   2.863450038   0.000000000
Al       2.863450038   2.863450038   0.000000000


     FCP: Total Charge =     0.000000  ->     0.030220
     FCP: Fermi Energy =    -0.312428 Ry (   -4.250800 eV)
     FCP: Target Level =    -0.349192 Ry (   -4.751000 eV)
     FCP: Force on FCP =    -0.036764 Ry (   -0.500200 eV)
     FCP: Force Thr.   =     0.000735 Ry (    0.010000 eV)



     Writing output data file Al001_bc2_FCP_vm05.save
     Check: negative starting charge=   -0.000169
     NEW-OLD atomic charge density approx. for the potential

     Check: negative/imaginary core charge=   -0.000012    0.000000
     Check: negative starting charge=   -0.000169
     extrapolated charge   12.00000, renormalised to   11.96978

     total cpu time spent up to now is        2.9 secs

     per-process dynamical memory:    10.4 Mb

     Self-consistent Calculation

     iteration #  1     ecut=    20.00 Ry     beta=0.10
     RMM-DIIS diagonalization
     ethr =  1.00E-06,  avg # of iterations =  1.5

     Threshold (ethr) on eigenvalues was too large:
     Diagonalizing with lowered threshold

     RMM-DIIS diagonalization
     ethr =  5.85E-09,  avg # of iterations =  1.6

     total cpu time spent up to now is        3.2 secs

     End of self-consistent calculation

          k = 0.0833 0.0833 0.0000 (  3999 PWs)   bands (ev):

   -11.3503  -7.7748  -7.7748  -6.0663  -6.0663  -5.3109  -4.2890  -3.4161
    -2.1229  -2.0754

          k = 0.0833 0.2500 0.0000 (  4011 PWs)   bands (ev):

   -11.1022  -8.9074  -7.5306  -5.8386  -5.3880  -5.0732  -4.4948  -3.9347
    -3.0057  -1.8445

          k = 0.0833 0.4167 0.0000 (  4016 PWs)   bands (ev):

   -10.6079  -9.8725  -7.0449  -6.3252  -5.3871  -4.7312  -4.6007  -3.9018
    -2.6600  -1.3864

          k = 0.2500 0.2500 0.0000 (  4007 PWs)   bands (ev):

   -10.8544  -8.6630  -8.6630  -6.5084  -4.8358  -4.2728  -4.2728  -2.9594
    -2.7718  -2.7717

          k = 0.2500 0.4167 0.0000 (  4019 PWs)   bands (ev):

   -10.3608  -9.6265  -8.1766  -7.4545  -4.3640  -3.8427  -3.6661  -3.2602
    -2.4603  -2.3060

          k = 0.4167 0.4167 0.0000 (  4005 PWs)   bands (ev):

    -9.8688  -9.1370  -9.1370  -8.4090  -3.8931  -3.1971  -3.1971  -2.5034
    -2.1123  -2.0482

     the Fermi energy is    -4.2581 ev

!    total energy              =     -49.51733302 Ry
     Harris-Foulkes estimate   =     -49.16901560 Ry
     estimated scf accuracy    <       0.00000079 Ry

     The total energy is the sum of the following terms:

     one-electron contribution =    -144.64261007 Ry
     hartree contribution      =      72.69673070 Ry
     xc contribution           =     -39.20255123 Ry
     ewald contribution        =      61.64193118 Ry
     smearing contrib. (-TS)   =      -0.00028088 Ry
     pot.stat. contrib. (-muN) =      -0.01055272 Ry

     convergence has been achieved in   1 iterations

     number of scf cycles    =   2
     number of bfgs steps    =   1

     grand-energy   old      =     -49.5166696191 Ry
     grand-energy   new      =     -49.5173330194 Ry


     WARNING: bfgs curvature condition failed, Theta= 0.812
     new trust radius        =       0.2022020891 bohr
     new conv_thr            =       0.0000000100 Ry


ATOMIC_POSITIONS (angstrom)
Al       0.000000000   0.000000000   0.000000000
Al       2.863450038   0.000000000   0.000000000
Al       0.000000000   2.863450038   0.000000000
Al       2.863450038   2.863450038   0.000000000


     FCP: Total Charge =     0.030220  ->     0.063463
     FCP: Fermi Energy =    -0.312963 Ry (   -4.258078 eV)
     FCP: Target Level =    -0.349192 Ry (   -4.751000 eV)
     FCP: Force on FCP =    -0.036229 Ry (   -0.492922 eV)
     FCP: Force Thr.   =     0.000735 Ry (    0.010000 eV)



     Writing output data file Al001_bc2_FCP_vm05.save
     Check: negative starting charge=   -0.000169
     NEW-OLD atomic charge density approx. for the potential

     Check: negative/imaginary core charge=   -0.000012    0.000000
     Check: negative starting charge=   -0.000169
     extrapolated charge   11.96978, renormalised to   11.93654

     total cpu time spent up to now is        3.6 secs

     per-process dynamical memory:    10.4 Mb

     Self-consistent Calculation

     iteration #  1     ecut=    20.00 Ry     beta=0.10
     RMM-DIIS diagonalization
     ethr =  1.00E-06,  avg # of iterations =  2.4

     total cpu time spent up to now is        3.8 secs

     total energy              =     -49.51735728 Ry
     Harris-Foulkes estimate   =     -49.13500066 Ry
     estimated scf accuracy    <       0.00012999 Ry

     iteration #  2     ecut=    20.00 Ry     beta=0.10
     RMM-DIIS diagonalization
     ethr =  1.09E-06,  avg # of iterations =  3.4

     total cpu time spent up to now is        4.0 secs

     total energy              =     -49.51755957 Ry
     Harris-Foulkes estimate   =     -49.51748897 Ry
     estimated scf accuracy    <       0.00047753 Ry

     iteration #  3     ecut=    20.00 Ry     beta=0.10
     RMM-DIIS diagonalization
     ethr =  1.09E-06,  avg # of iterations =  2.5

     total cpu time spent up to now is        4.2 secs

     total energy              =     -49.51758143 Ry
     Harris-Foulkes estimate   =     -49.51756384 Ry
     estimated scf accuracy    <       0.00068674 Ry

     iteration #  4     ecut=    20.00 Ry     beta=0.10
     RMM-DIIS diagonalization
     ethr =  1.09E-06,  avg # of iterations =  2.5

     total cpu time spent up to now is        4.4 secs

     total energy              =     -49.51745485 Ry
     Harris-Foulkes estimate   =     -49.51758240 Ry
     estimated scf accuracy    <       0.00073796 Ry

     iteration #  5     ecut=    20.00 Ry     beta=0.10
     RMM-DIIS diagonalization
     ethr =  1.09E-06,  avg # of iterations =  2.5

     total cpu time spent up to now is        4.5 secs

     total energy              =     -49.51746706 Ry
     Harris-Foulkes estimate   =     -49.51746158 Ry
     estimated scf accuracy    <       0.00042148 Ry

     iteration #  6     ecut=    20.00 Ry     beta=0.10
     RMM-DIIS diagonalization
     ethr =  1.09E-06,  avg # of iterations =  2.5

     total cpu time spent up to now is        4.7 secs

     total energy              =     -49.51741435 Ry
     Harris-Foulkes estimate   =     -49.51746724 Ry
     estimated scf accuracy    <       0.00043501 Ry

     iteration #  7     ecut=    20.00 Ry     beta=0.10
     RMM-DIIS diagonalization
     ethr =  1.09E-06,  avg # of iterations =  2.5

     total cpu time spent up to now is        4.9 secs

     total energy              =     -49.51732069 Ry
     Harris-Foulkes estimate   =     -49.51741652 Ry
     estimated scf accuracy    <       0.00029617 Ry

     iteration #  8     ecut=    20.00 Ry     beta=0.10
     RMM-DIIS diagonalization
     ethr =  1.09E-06,  avg # of iterations =  2.5

     total cpu time spent up to now is        5.0 secs

     total energy              =     -49.51729760 Ry
     Harris-Foulkes estimate   =     -49.51733320 Ry
     estimated scf accuracy    <       0.00006947 Ry

     iteration #  9     ecut=    20.00 Ry     beta=0.10
     RMM-DIIS diagonalization
     ethr =  5.82E-07,  avg # of iterations =  2.6

     total cpu time spent up to now is        5.2 secs

     total energy              =     -49.51731173 Ry
     Harris-Foulkes estimate   =     -49.51730889 Ry
     estimated scf accuracy    <       0.00000126 Ry

     iteration # 10     ecut=    20.00 Ry     beta=0.10
     RMM-DIIS diagonalization
     ethr =  1.05E-08,  avg # of iterations =  3.2

     total cpu time spent up to now is        5.4 secs

     total energy              =     -49.51730670 Ry
     Harris-Foulkes estimate   =     -49.51731421 Ry
     estimated scf accuracy    <       0.00001392 Ry

     iteration # 11     ecut=    20.00 Ry     beta=0.10
     RMM-DIIS diagonalization
     ethr =  1.05E-08,  avg # of iterations =  3.6

     total cpu time spent up to now is        5.7 secs

     total energy              =     -49.51730952 Ry
     Harris-Foulkes estimate   =     -49.51730962 Ry
     estimated scf accuracy    <       0.00000301 Ry

     iteration # 12     ecut=    20.00 Ry     beta=0.10
     RMM-DIIS diagonalization
     ethr =  1.05E-08,  avg # of iterations =  2.5

     total cpu time spent up to now is        5.9 secs

     total energy              =     -49.51731025 Ry
     Harris-Foulkes estimate   =     -49.51730954 Ry
     estimated scf accuracy    <       0.00000269 Ry

     iteration # 13     ecut=    20.00 Ry     beta=0.10
     RMM-DIIS diagonalization
     ethr =  1.05E-08,  avg # of iterations =  2.5

     total cpu time spent up to now is        6.0 secs

     total energy              =     -49.51731024 Ry
     Harris-Foulkes estimate   =     -49.51731028 Ry
     estimated scf accuracy    <       0.00000131 Ry

     iteration # 14     ecut=    20.00 Ry     beta=0.10
     RMM-DIIS diagonalization
     ethr =  1.05E-08,  avg # of iterations =  2.5

     negative rho (up, down):  2.977E-08 0.000E+00

     total cpu time spent up to now is        6.2 secs

     total energy              =     -49.51730979 Ry
     Harris-Foulkes estimate   =     -49.51731025 Ry
     estimated scf accuracy    <       0.00000117 Ry

     iteration # 15     ecut=    20.00 Ry     beta=0.10
     RMM-DIIS diagonalization
     ethr =  9.78E-09,  avg # of iterations =  2.6

     total cpu time spent up to now is        6.4 secs

     total energy              =     -49.51731022 Ry
     Harris-Foulkes estimate   =     -49.51730988 Ry
     estimated scf accuracy    <       0.00000434 Ry

     iteration # 16     ecut=    20.00 Ry     beta=0.10
     RMM-DIIS diagonalization
     ethr =  9.78E-09,  avg # of iterations =  3.1

     total cpu time spent up to now is        6.6 secs

     total energy              =     -49.51731024 Ry
     Harris-Foulkes estimate   =     -49.51731069 Ry
     estimated scf accuracy    <       0.00000047 Ry

     iteration # 17     ecut=    20.00 Ry     beta=0.10
     RMM-DIIS diagonalization
     ethr =  3.93E-09,  avg # of iterations =  2.6

     total cpu time spent up to now is        6.8 secs

     total energy              =     -49.51731031 Ry
     Harris-Foulkes estimate   =     -49.51731030 Ry
     estimated scf accuracy    <       0.00000019 Ry

     iteration # 18     ecut=    20.00 Ry     beta=0.10
     RMM-DIIS diagonalization
     ethr =  1.61E-09,  avg # of iterations =  2.5

     total cpu time spent up to now is        6.9 secs

     total energy              =     -49.51731014 Ry
     Harris-Foulkes estimate   =     -49.51731031 Ry
     estimated scf accuracy    <       0.00000012 Ry

     iteration # 19     ecut=    20.00 Ry     beta=0.10
     RMM-DIIS diagonalization
     ethr =  9.69E-10,  avg # of iterations =  2.5

     total cpu time spent up to now is        7.1 secs

     total energy              =     -49.51731007 Ry
     Harris-Foulkes estimate   =     -49.51731014 Ry
     estimated scf accuracy    <       0.00000004 Ry

     iteration # 20     ecut=    20.00 Ry     beta=0.10
     RMM-DIIS diagonalization
     ethr =  3.38E-10,  avg # of iterations =  2.6

     total cpu time spent up to now is        7.3 secs

     End of self-consistent calculation

          k = 0.0833 0.0833 0.0000 (  3999 PWs)   bands (ev):

   -12.0754  -8.5001  -8.5001  -6.7921  -6.7921  -5.9936  -5.0153  -4.1439
    -2.8467  -2.7661

          k = 0.0833 0.2500 0.0000 (  4011 PWs)   bands (ev):

   -11.8273  -9.6326  -8.2560  -6.5644  -6.1138  -5.7562  -5.2208  -4.6615
    -3.6923  -2.5356

          k = 0.0833 0.4167 0.0000 (  4016 PWs)   bands (ev):

   -11.3330 -10.5977  -7.7703  -7.0507  -6.1131  -5.4574  -5.2843  -4.5864
    -3.3861  -2.0780

          k = 0.2500 0.2500 0.0000 (  4007 PWs)   bands (ev):

   -11.5795  -9.3883  -9.3883  -7.2340  -5.5191  -4.9988  -4.9988  -3.6874
    -3.4586  -3.4586

          k = 0.2500 0.4167 0.0000 (  4019 PWs)   bands (ev):

   -11.0859 -10.3517  -8.9019  -8.1799  -5.0479  -4.5690  -4.3510  -3.9871
    -3.1867  -2.9935

          k = 0.4167 0.4167 0.0000 (  4005 PWs)   bands (ev):

   -10.5939  -9.8622  -9.8622  -9.1343  -4.5775  -3.8826  -3.8826  -3.1903
    -2.8393  -2.7763

     the Fermi energy is    -4.9783 ev

!    total energy              =     -49.51731009 Ry
     Harris-Foulkes estimate   =     -49.51731008 Ry
     estimated scf accuracy    <          6.8E-10 Ry

     The total energy is the sum of the following terms:

     one-electron contribution =    -144.35621128 Ry
     hartree contribution      =      72.41749016 Ry
     xc contribution           =     -39.19791071 Ry
     ewald contribution        =      61.64193118 Ry
     smearing contrib. (-TS)   =      -0.00044873 Ry
     pot.stat. contrib. (-muN) =      -0.02216071 Ry

     convergence has been achieved in  20 iterations

     number of scf cycles    =   3
     number of bfgs steps    =   2

     grand-energy   old      =     -49.5173330194 Ry
     grand-energy   new      =     -49.5173100880 Ry

     new trust radius        =       0.0638163288 bohr
     new conv_thr            =       0.0000000100 Ry


ATOMIC_POSITIONS (angstrom)
Al       0.000000000   0.000000000   0.000000000
Al       2.863450038   0.000000000   0.000000000
Al       0.000000000   2.863450038   0.000000000
Al       2.863450038   2.863450038   0.000000000


     FCP: Total Charge =     0.063463  ->     0.052971
     FCP: Fermi Energy =    -0.365899 Ry (   -4.978310 eV)
     FCP: Target Level =    -0.349192 Ry (   -4.751000 eV)
     FCP: Force on FCP =     0.016707 Ry (    0.227310 eV)
     FCP: Force Thr.   =     0.000735 Ry (    0.010000 eV)



     Writing output data file Al001_bc2_FCP_vm05.save
     Check: negative starting charge=   -0.000169
     NEW-OLD atomic charge density approx. for the potential

     Check: negative/imaginary core charge=   -0.000012    0.000000
     Check: negative starting charge=   -0.000169
     extrapolated charge   11.93654, renormalised to   11.94703

     total cpu time spent up to now is        7.6 secs

     per-process dynamical memory:    12.1 Mb

     Self-consistent Calculation

     iteration #  1     ecut=    20.00 Ry     beta=0.10
     RMM-DIIS diagonalization
     ethr =  1.00E-06,  avg # of iterations =  1.5

     Threshold (ethr) on eigenvalues was too large:
     Diagonalizing with lowered threshold

     RMM-DIIS diagonalization
     ethr =  9.20E-10,  avg # of iterations =  1.5

     total cpu time spent up to now is        7.9 secs

     total energy              =     -49.51743110 Ry
     Harris-Foulkes estimate   =     -49.63810665 Ry
     estimated scf accuracy    <       0.00000011 Ry

     iteration #  2     ecut=    20.00 Ry     beta=0.10
     RMM-DIIS diagonalization
     ethr =  9.07E-10,  avg # of iterations =  4.4

     total cpu time spent up to now is        8.2 secs

     total energy              =     -49.51744525 Ry
     Harris-Foulkes estimate   =     -49.51744506 Ry
     estimated scf accuracy    <       0.00001761 Ry

     iteration #  3     ecut=    20.00 Ry     beta=0.10
     RMM-DIIS diagonalization
     ethr =  9.07E-10,  avg # of iterations =  2.5

     total cpu time spent up to now is        8.4 secs

     total energy              =     -49.51744522 Ry
     Harris-Foulkes estimate   =     -49.51744525 Ry
     estimated scf accuracy    <       0.00001821 Ry

     iteration #  4     ecut=    20.00 Ry     beta=0.10
     RMM-DIIS diagonalization
     ethr =  9.07E-10,  avg # of iterations =  2.5

     total cpu time spent up to now is        8.5 secs

     total energy              =     -49.51744572 Ry
     Harris-Foulkes estimate   =     -49.51744522 Ry
     estimated scf accuracy    <       0.00001812 Ry

     iteration #  5     ecut=    20.00 Ry     beta=0.10
     RMM-DIIS diagonalization
     ethr =  9.07E-10,  avg # of iterations =  2.5

     total cpu time spent up to now is        8.7 secs

     total energy              =     -49.51744099 Ry
     Harris-Foulkes estimate   =     -49.51744573 Ry
     estimated scf accuracy    <       0.00001956 Ry

     iteration #  6     ecut=    20.00 Ry     beta=0.10
     RMM-DIIS diagonalization
     ethr =  9.07E-10,  avg # of iterations =  3.7

     total cpu time spent up to now is        8.9 secs

     total energy              =     -49.51744145 Ry
     Harris-Foulkes estimate   =     -49.51744144 Ry
     estimated scf accuracy    <       0.00000741 Ry

     iteration #  7     ecut=    20.00 Ry     beta=0.10
     RMM-DIIS diagonalization
     ethr =  9.07E-10,  avg # of iterations =  2.5

     total cpu time spent up to now is        9.1 secs

     total energy              =     -49.51743937 Ry
     Harris-Foulkes estimate   =     -49.51744145 Ry
     estimated scf accuracy    <       0.00000743 Ry

     iteration #  8     ecut=    20.00 Ry     beta=0.10
     RMM-DIIS diagonalization
     ethr =  9.07E-10,  avg # of iterations =  3.6

     total cpu time spent up to now is        9.3 secs

     total energy              =     -49.51743853 Ry
     Harris-Foulkes estimate   =     -49.51743962 Ry
     estimated scf accuracy    <       0.00000219 Ry

     iteration #  9     ecut=    20.00 Ry     beta=0.10
     RMM-DIIS diagonalization
     ethr =  9.07E-10,  avg # of iterations =  3.7

     total cpu time spent up to now is        9.6 secs

     total energy              =     -49.51743887 Ry
     Harris-Foulkes estimate   =     -49.51743887 Ry
     estimated scf accuracy    <       0.00000002 Ry

     iteration # 10     ecut=    20.00 Ry     beta=0.10
     RMM-DIIS diagonalization
     ethr =  1.30E-10,  avg # of iterations =  2.7

     total cpu time spent up to now is        9.8 secs

     total energy              =     -49.51743890 Ry
     Harris-Foulkes estimate   =     -49.51743887 Ry
     estimated scf accuracy    <       0.00000001 Ry

     iteration # 11     ecut=    20.00 Ry     beta=0.10
     RMM-DIIS diagonalization
     ethr =  1.20E-10,  avg # of iterations =  2.5

     total cpu time spent up to now is        9.9 secs

     total energy              =     -49.51743891 Ry
     Harris-Foulkes estimate   =     -49.51743890 Ry
     estimated scf accuracy    <       0.00000001 Ry

     iteration # 12     ecut=    20.00 Ry     beta=0.10
     RMM-DIIS diagonalization
     ethr =  1.17E-10,  avg # of iterations =  2.5

     total cpu time spent up to now is       10.1 secs

     total energy              =     -49.51743882 Ry
     Harris-Foulkes estimate   =     -49.51743891 Ry
     estimated scf accuracy    <       0.00000001 Ry

     iteration # 13     ecut=    20.00 Ry     beta=0.10
     RMM-DIIS diagonalization
     ethr =  9.82E-11,  avg # of iterations =  3.1

     total cpu time spent up to now is       10.3 secs

     total energy              =     -49.51743889 Ry
     Harris-Foulkes estimate   =     -49.51743883 Ry
     estimated scf accuracy    <       0.00000010 Ry

     iteration # 14     ecut=    20.00 Ry     beta=0.10
     RMM-DIIS diagonalization
     ethr =  9.82E-11,  avg # of iterations =  3.1

     total cpu time spent up to now is       10.5 secs

     End of self-consistent calculation

          k = 0.0833 0.0833 0.0000 (  3999 PWs)   bands (ev):

   -11.9548  -8.3794  -8.3794  -6.6713  -6.6713  -5.8799  -4.8944  -4.0228
    -2.7263  -2.6512

          k = 0.0833 0.2500 0.0000 (  4011 PWs)   bands (ev):

   -11.7066  -9.5120  -8.1353  -6.4436  -5.9930  -5.6425  -5.1000  -4.5406
    -3.5780  -2.4205

          k = 0.0833 0.4167 0.0000 (  4016 PWs)   bands (ev):

   -11.2124 -10.4770  -7.6496  -6.9300  -5.9923  -5.3366  -5.1705  -4.4724
    -3.2653  -1.9629

          k = 0.2500 0.2500 0.0000 (  4007 PWs)   bands (ev):

   -11.4589  -9.2676  -9.2676  -7.1133  -5.4053  -4.8780  -4.8780  -3.5662
    -3.3442  -3.3442

          k = 0.2500 0.4167 0.0000 (  4019 PWs)   bands (ev):

   -10.9653 -10.2310  -8.7813  -8.0592  -4.9340  -4.4482  -4.2370  -3.8662
    -3.0658  -2.8791

          k = 0.4167 0.4167 0.0000 (  4005 PWs)   bands (ev):

   -10.4733  -9.7415  -9.7415  -9.0136  -4.4636  -3.7685  -3.7685  -3.0760
    -2.7183  -2.6552

     the Fermi energy is    -4.8571 ev

!    total energy              =     -49.51743880 Ry
     Harris-Foulkes estimate   =     -49.51743889 Ry
     estimated scf accuracy    <          7.9E-09 Ry

     The total energy is the sum of the following terms:

     one-electron contribution =    -144.46220805 Ry
     hartree contribution      =      72.52344778 Ry
     xc contribution           =     -39.20170721 Ry
     ewald contribution        =      61.64193118 Ry
     smearing contrib. (-TS)   =      -0.00040534 Ry
     pot.stat. contrib. (-muN) =      -0.01849715 Ry

     convergence has been achieved in  14 iterations

     number of scf cycles    =   4
     number of bfgs steps    =   3

     grand-energy   old      =     -49.5173100880 Ry
     grand-energy   new      =     -49.5174387989 Ry

     new trust radius        =       0.0558480285 bohr
     new conv_thr            =       0.0000000100 Ry


ATOMIC_POSITIONS (angstrom)
Al       0.000000000   0.000000000   0.000000000
Al       2.863450038   0.000000000   0.000000000
Al       0.000000000   2.863450038   0.000000000
Al       2.863450038   2.863450038   0.000000000


     FCP: Total Charge =     0.052971  ->     0.043790
     FCP: Fermi Energy =    -0.356989 Ry (   -4.857087 eV)
     FCP: Target Level =    -0.349192 Ry (   -4.751000 eV)
     FCP: Force on FCP =     0.007797 Ry (    0.106087 eV)
     FCP: Force Thr.   =     0.000735 Ry (    0.010000 eV)



     Writing output data file Al001_bc2_FCP_vm05.save
     Check: negative starting charge=   -0.000169
     NEW-OLD atomic charge density approx. for the potential

     Check: negative/imaginary core charge=   -0.000012    0.000000
     Check: negative starting charge=   -0.000169
     extrapolated charge   11.94703, renormalised to   11.95621

     total cpu time spent up to now is       10.8 secs

     per-process dynamical memory:    12.1 Mb

     Self-consistent Calculation

     iteration #  1     ecut=    20.00 Ry     beta=0.10
     RMM-DIIS diagonalization
     ethr =  1.00E-06,  avg # of iterations =  1.5

     Threshold (ethr) on eigenvalues was too large:
     Diagonalizing with lowered threshold

     RMM-DIIS diagonalization
     ethr =  7.47E-10,  avg # of iterations =  1.5

     total cpu time spent up to now is       11.2 secs

     total energy              =     -49.51746916 Ry
     Harris-Foulkes estimate   =     -49.62313726 Ry
     estimated scf accuracy    <       0.00000009 Ry

     iteration #  2     ecut=    20.00 Ry     beta=0.10
     RMM-DIIS diagonalization
     ethr =  7.44E-10,  avg # of iterations =  4.4

     total cpu time spent up to now is       11.4 secs

     total energy              =     -49.51748008 Ry
     Harris-Foulkes estimate   =     -49.51747992 Ry
     estimated scf accuracy    <       0.00001365 Ry

     iteration #  3     ecut=    20.00 Ry     beta=0.10
     RMM-DIIS diagonalization
     ethr =  7.44E-10,  avg # of iterations =  2.5

     total cpu time spent up to now is       11.6 secs

     total energy              =     -49.51747993 Ry
     Harris-Foulkes estimate   =     -49.51748008 Ry
     estimated scf accuracy    <       0.00001412 Ry

     iteration #  4     ecut=    20.00 Ry     beta=0.10
     RMM-DIIS diagonalization
     ethr =  7.44E-10,  avg # of iterations =  2.5

     total cpu time spent up to now is       11.8 secs

     total energy              =     -49.51747774 Ry
     Harris-Foulkes estimate   =     -49.51747993 Ry
     estimated scf accuracy    <       0.00001372 Ry

     iteration #  5     ecut=    20.00 Ry     beta=0.10
     RMM-DIIS diagonalization
     ethr =  7.44E-10,  avg # of iterations =  3.1

     total cpu time spent up to now is       12.0 secs

     total energy              =     -49.51747703 Ry
     Harris-Foulkes estimate   =     -49.51747787 Ry
     estimated scf accuracy    <       0.00000800 Ry

     iteration #  6     ecut=    20.00 Ry     beta=0.10
     RMM-DIIS diagonalization
     ethr =  7.44E-10,  avg # of iterations =  3.1

     total cpu time spent up to now is       12.2 secs

     total energy              =     -49.51747705 Ry
     Harris-Foulkes estimate   =     -49.51747707 Ry
     estimated scf accuracy    <       0.00000570 Ry

     iteration #  7     ecut=    20.00 Ry     beta=0.10
     RMM-DIIS diagonalization
     ethr =  7.44E-10,  avg # of iterations =  2.5

     total cpu time spent up to now is       12.4 secs

     total energy              =     -49.51747519 Ry
     Harris-Foulkes estimate   =     -49.51747705 Ry
     estimated scf accuracy    <       0.00000560 Ry

     iteration #  8     ecut=    20.00 Ry     beta=0.10
     RMM-DIIS diagonalization
     ethr =  7.44E-10,  avg # of iterations =  3.7

     total cpu time spent up to now is       12.6 secs

     total energy              =     -49.51747501 Ry
     Harris-Foulkes estimate   =     -49.51747547 Ry
     estimated scf accuracy    <       0.00000106 Ry

     iteration #  9     ecut=    20.00 Ry     beta=0.10
     RMM-DIIS diagonalization
     ethr =  7.44E-10,  avg # of iterations =  3.3

     total cpu time spent up to now is       12.8 secs

     total energy              =     -49.51747514 Ry
     Harris-Foulkes estimate   =     -49.51747514 Ry
     estimated scf accuracy    <       0.00000002 Ry

     iteration # 10     ecut=    20.00 Ry     beta=0.10
     RMM-DIIS diagonalization
     ethr =  1.78E-10,  avg # of iterations =  2.5

     total cpu time spent up to now is       13.0 secs

     total energy              =     -49.51747514 Ry
     Harris-Foulkes estimate   =     -49.51747515 Ry
     estimated scf accuracy    <       0.00000002 Ry

     iteration # 11     ecut=    20.00 Ry     beta=0.10
     RMM-DIIS diagonalization
     ethr =  1.65E-10,  avg # of iterations =  2.5

     total cpu time spent up to now is       13.1 secs

     End of self-consistent calculation

          k = 0.0833 0.0833 0.0000 (  3999 PWs)   bands (ev):

   -11.8495  -8.2742  -8.2742  -6.5660  -6.5660  -5.7809  -4.7891  -3.9172
    -2.6213  -2.5510

          k = 0.0833 0.2500 0.0000 (  4011 PWs)   bands (ev):

   -11.6014  -9.4067  -8.0300  -6.3383  -5.8877  -5.5434  -4.9946  -4.4351
    -3.4784  -2.3203

          k = 0.0833 0.4167 0.0000 (  4016 PWs)   bands (ev):

   -11.1072 -10.3718  -7.5444  -6.8247  -5.8869  -5.2312  -5.0713  -4.3731
    -3.1599  -1.8626

          k = 0.2500 0.2500 0.0000 (  4007 PWs)   bands (ev):

   -11.3536  -9.1624  -9.1624  -7.0080  -5.3062  -4.7727  -4.7727  -3.4606
    -3.2446  -3.2446

          k = 0.2500 0.4167 0.0000 (  4019 PWs)   bands (ev):

   -10.8601 -10.1258  -8.6760  -7.9539  -4.8349  -4.3428  -4.1377  -3.7607
    -2.9604  -2.7794

          k = 0.4167 0.4167 0.0000 (  4005 PWs)   bands (ev):

   -10.3681  -9.6363  -9.6363  -8.9084  -4.3643  -3.6691  -3.6691  -2.9765
    -2.6128  -2.5495

     the Fermi energy is    -4.7514 ev

!    total energy              =     -49.51747505 Ry
     Harris-Foulkes estimate   =     -49.51747515 Ry
     estimated scf accuracy    <          4.6E-09 Ry

     The total energy is the sum of the following terms:

     one-electron contribution =    -144.55464995 Ry
     hartree contribution      =      72.61590027 Ry
     xc contribution           =     -39.20499654 Ry
     ewald contribution        =      61.64193118 Ry
     smearing contrib. (-TS)   =      -0.00036898 Ry
     pot.stat. contrib. (-muN) =      -0.01529104 Ry

     convergence has been achieved in  11 iterations

     bfgs converged in   5 scf cycles and   4 bfgs steps
     (criteria: energy <  1.0E-04 Ry, force <  1.0E-03 Ry/Bohr)
     (criteria: force on FCP <  1.0E-02 eV)

     End of BFGS Geometry Optimization

     Final grand-energy   =     -49.5174750531 Ry
Begin final coordinates

ATOMIC_POSITIONS (angstrom)
Al       0.000000000   0.000000000   0.000000000
Al       2.863450038   0.000000000   0.000000000
Al       0.000000000   2.863450038   0.000000000
Al       2.863450038   2.863450038   0.000000000
End final coordinates


     FCP: Total Charge =     0.043790
     FCP: Fermi Energy =    -0.349220 Ry (   -4.751385 eV)
     FCP: Target Level =    -0.349192 Ry (   -4.751000 eV)
     FCP: Force on FCP =     0.000028 Ry (    0.000385 eV)
     FCP: Force Thr.   =     0.000735 Ry (    0.010000 eV)



     Writing output data file Al001_bc2_FCP_vm05.save

     init_run     :      0.49s CPU      0.50s WALL (       1 calls)
     electrons    :     11.27s CPU     11.42s WALL (       5 calls)
     update_pot   :      0.69s CPU      0.75s WALL (       4 calls)

     Called by init_run:
     wfcinit      :      0.11s CPU      0.11s WALL (       1 calls)
     potinit      :      0.09s CPU      0.09s WALL (       1 calls)

     Called by electrons:
     c_bands      :      7.39s CPU      7.43s WALL (      58 calls)
     sum_band     :      2.06s CPU      2.07s WALL (      58 calls)
     v_of_rho     :      1.37s CPU      1.37s WALL (      59 calls)
     newd         :      0.36s CPU      0.37s WALL (      59 calls)
     mix_rho      :      0.19s CPU      0.18s WALL (      58 calls)

     Called by c_bands:
     init_us_2    :      0.24s CPU      0.23s WALL (     702 calls)
     crmmdiagg    :      4.56s CPU      4.58s WALL (     348 calls)
     wfcrot       :      2.56s CPU      2.58s WALL (     300 calls)
     gsorth       :      0.19s CPU      0.21s WALL (     348 calls)

     Called by sum_band:
     sum_band:bec :      0.00s CPU      0.00s WALL (     348 calls)
     addusdens    :      0.39s CPU      0.39s WALL (      58 calls)

     Called by *rmmdiagg:
     h_psi        :      6.14s CPU      6.16s WALL (     977 calls)
     s_psi        :      0.15s CPU      0.16s WALL (     977 calls)
     cdiaghg      :      0.03s CPU      0.02s WALL (     300 calls)

     Called by h_psi:
     h_psi:pot    :      6.11s CPU      6.13s WALL (     977 calls)
     h_psi:calbec :      0.18s CPU      0.19s WALL (     977 calls)
     vloc_psi     :      5.75s CPU      5.77s WALL (     977 calls)
     add_vuspsi   :      0.18s CPU      0.16s WALL (     977 calls)

     General routines
     calbec       :      0.26s CPU      0.27s WALL (    1325 calls)
     fft          :      0.49s CPU      0.51s WALL (     778 calls)
     fftw         :      6.19s CPU      6.26s WALL (   20098 calls)
     davcio       :      0.00s CPU      0.00s WALL (       6 calls)

     Parallel routines
     fft_scatter  :      1.65s CPU      1.68s WALL (   20876 calls)

     PWSCF        :    12.86s CPU        13.30s WALL


   This run was terminated on:  17:28:11  11Jan2021            

=------------------------------------------------------------------------------=
   JOB DONE.
=------------------------------------------------------------------------------=
