
     Program PWSCF v.6.1 starts on 11Jan2021 at 17:27:42 

     This program is part of the open-source Quantum ESPRESSO suite
     for quantum simulation of materials; please cite
         "P. Giannozzi et al., J. Phys.:Condens. Matter 21 395502 (2009);
          URL http://www.quantum-espresso.org", 
     in publications or presentations arising from this work. More details at
     http://www.quantum-espresso.org/quote

     Parallel version (MPI), running on     4 processors
     R & G space division:  proc/nbgrp/npool/nimage =       4
     Waiting for input...
     Reading input from standard input

     Current dimensions of program PWSCF are:
     Max number of different atomic species (ntypx) = 10
     Max number of k-points (npk) =  40000
     Max angular momentum in pseudopotentials (lmaxx) =  3

     Subspace diagonalization in iterative solution of the eigenvalue problem:
     a serial algorithm will be used

     Found symmetry operation: I + ( -0.5000  0.0000  0.0000)
     This is a supercell, fractional translations are disabled

     Parallelization info
     --------------------
     sticks:   dense  smooth     PW     G-vecs:    dense   smooth      PW
     Min         187     187     54                 8037     8037    1261
     Max         188     188     56                 8044     8044    1262
     Sum         749     749    221                32157    32157    5047



     bravais-lattice index     =            0
     lattice parameter (alat)  =      10.8223  a.u.
     unit-cell volume          =    2655.9321 (a.u.)^3
     number of atoms/cell      =            4
     number of atomic types    =            1
     number of electrons       =        12.00
     number of Kohn-Sham states=           10
     kinetic-energy cutoff     =      20.0000  Ry
     charge density cutoff     =      80.0000  Ry
     convergence threshold     =      1.0E-06
     mixing beta               =       0.1000
     number of iterations used =            8  plain     mixing
     Exchange-correlation      =  SLA  PW   PBE  PBE ( 1  4  3  4 0 0)
     nstep                     =           50


     Effective Screening Medium Method
     =================================
     Boundary Conditions: Metal-Slab-Metal
     total charge in unit cell        =   0.0000
     grid points for fit at edges     =        4 


     >>>> FCP Relaxation is activated <<<<<
     Initial Total Charge =     0.000000 e
     Target Fermi Energy  =    -0.275693 Ry
                          =    -3.751000 eV

     celldm(1)=  10.822273  celldm(2)=   0.000000  celldm(3)=   0.000000
     celldm(4)=   0.000000  celldm(5)=   0.000000  celldm(6)=   0.000000

     crystal axes: (cart. coord. in units of alat)
               a(1) = (   1.000000   0.000000   0.000000 )  
               a(2) = (   0.000000   1.000000   0.000000 )  
               a(3) = (   0.000000   0.000000   2.095374 )  

     reciprocal axes: (cart. coord. in units 2 pi/alat)
               b(1) = (  1.000000  0.000000  0.000000 )  
               b(2) = (  0.000000  1.000000  0.000000 )  
               b(3) = (  0.000000  0.000000  0.477242 )  


     PseudoPot. # 1 for Al read from file:
     /home1/gler/share/qe-6.1-rism/pseudo/Al.pbe-n-van.UPF
     MD5 check sum: b11ded24487aef5bc42d5c7a2e22a7b6
     Pseudo is Ultrasoft + core correction, Zval =  3.0
     Generated by new atomic code, or converted to UPF format
     Using radial grid of  893 points,  2 beta functions with: 
                l(1) =   0
                l(2) =   1
     Q(r) pseudized with  8 coefficients,  rinner =    0.900   0.900   0.900


     atomic species   valence    mass     pseudopotential
        Al             3.00    26.98154     Al( 1.00)

     16 Sym. Ops., with inversion, found



   Cartesian axes

     site n.     atom                  positions (alat units)
         1           Al  tau(   1) = (   0.0000000   0.0000000   0.0000000  )
         2           Al  tau(   2) = (   0.5000000   0.0000000   0.0000000  )
         3           Al  tau(   3) = (   0.0000000   0.5000000   0.0000000  )
         4           Al  tau(   4) = (   0.5000000   0.5000000   0.0000000  )

     number of k points=     6  Methfessel-Paxton smearing, width (Ry)=  0.0300
                       cart. coord. in units 2pi/alat
        k(    1) = (   0.0833333   0.0833333   0.0000000), wk =   0.2222222
        k(    2) = (   0.0833333   0.2500000   0.0000000), wk =   0.4444444
        k(    3) = (   0.0833333   0.4166667   0.0000000), wk =   0.4444444
        k(    4) = (   0.2500000   0.2500000   0.0000000), wk =   0.2222222
        k(    5) = (   0.2500000   0.4166667   0.0000000), wk =   0.4444444
        k(    6) = (   0.4166667   0.4166667   0.0000000), wk =   0.2222222

     Dense  grid:    32157 G-vectors     FFT dimensions: (  32,  32,  72)

     Estimated max dynamical RAM per process >       8.41MB

     Estimated total allocated dynamical RAM >      33.64MB

     Check: negative/imaginary core charge=   -0.000012    0.000000

     Initial potential from superposition of free atoms
     Check: negative starting charge=   -0.000169

     starting charge   11.99014, renormalised to   12.00000

     negative rho (up, down):  1.687E-04 0.000E+00
     Starting wfc are   16 randomized atomic wfcs

     total cpu time spent up to now is        0.5 secs

     per-process dynamical memory:     6.6 Mb

     Self-consistent Calculation

     iteration #  1     ecut=    20.00 Ry     beta=0.10
     RMM-DIIS diagonalization
     ethr =  1.00E-02,  avg # of iterations =  2.3

     Threshold (ethr) on eigenvalues was too large:
     Diagonalizing with lowered threshold

     RMM-DIIS diagonalization
     ethr =  5.22E-04,  avg # of iterations =  2.1

     negative rho (up, down):  1.411E-04 0.000E+00

     total cpu time spent up to now is        1.0 secs

     total energy              =     -49.53187404 Ry
     Harris-Foulkes estimate   =     -49.53893296 Ry
     estimated scf accuracy    <       0.07723161 Ry

     iteration #  2     ecut=    20.00 Ry     beta=0.10
     RMM-DIIS diagonalization
     ethr =  6.44E-04,  avg # of iterations =  2.5

     negative rho (up, down):  1.510E-05 0.000E+00

     total cpu time spent up to now is        1.2 secs

     total energy              =     -49.50863969 Ry
     Harris-Foulkes estimate   =     -49.53338168 Ry
     estimated scf accuracy    <       0.05719887 Ry

     iteration #  3     ecut=    20.00 Ry     beta=0.10
     RMM-DIIS diagonalization
     ethr =  4.77E-04,  avg # of iterations =  2.5

     negative rho (up, down):  1.806E-05 0.000E+00

     total cpu time spent up to now is        1.4 secs

     total energy              =     -49.51611461 Ry
     Harris-Foulkes estimate   =     -49.51662535 Ry
     estimated scf accuracy    <       0.00219639 Ry

     iteration #  4     ecut=    20.00 Ry     beta=0.10
     RMM-DIIS diagonalization
     ethr =  1.83E-05,  avg # of iterations =  3.5

     negative rho (up, down):  1.075E-07 0.000E+00

     total cpu time spent up to now is        1.7 secs

     total energy              =     -49.51645951 Ry
     Harris-Foulkes estimate   =     -49.51708623 Ry
     estimated scf accuracy    <       0.00187284 Ry

     iteration #  5     ecut=    20.00 Ry     beta=0.10
     RMM-DIIS diagonalization
     ethr =  1.56E-05,  avg # of iterations =  2.6

     negative rho (up, down):  2.424E-08 0.000E+00

     total cpu time spent up to now is        1.9 secs

     total energy              =     -49.51664184 Ry
     Harris-Foulkes estimate   =     -49.51664272 Ry
     estimated scf accuracy    <       0.00002750 Ry

     iteration #  6     ecut=    20.00 Ry     beta=0.10
     RMM-DIIS diagonalization
     ethr =  2.29E-07,  avg # of iterations =  4.2

     total cpu time spent up to now is        2.2 secs

     total energy              =     -49.51667240 Ry
     Harris-Foulkes estimate   =     -49.51667170 Ry
     estimated scf accuracy    <       0.00002096 Ry

     iteration #  7     ecut=    20.00 Ry     beta=0.10
     RMM-DIIS diagonalization
     ethr =  1.75E-07,  avg # of iterations =  2.5

     total cpu time spent up to now is        2.4 secs

     total energy              =     -49.51666835 Ry
     Harris-Foulkes estimate   =     -49.51667289 Ry
     estimated scf accuracy    <       0.00001173 Ry

     iteration #  8     ecut=    20.00 Ry     beta=0.10
     RMM-DIIS diagonalization
     ethr =  9.78E-08,  avg # of iterations =  2.5

     total cpu time spent up to now is        2.6 secs

     End of self-consistent calculation

          k = 0.0833 0.0833 0.0000 (  3999 PWs)   bands (ev):

   -11.3516  -7.7762  -7.7761  -6.0676  -6.0676  -5.3120  -4.2903  -3.4174
    -2.1242  -2.0766

          k = 0.0833 0.2500 0.0000 (  4011 PWs)   bands (ev):

   -11.1035  -8.9087  -7.5320  -5.8399  -5.3893  -5.0743  -4.4961  -3.9360
    -3.0069  -1.8457

          k = 0.0833 0.4167 0.0000 (  4016 PWs)   bands (ev):

   -10.6092  -9.8738  -7.0463  -6.3265  -5.3884  -4.7325  -4.6018  -3.9029
    -2.6613  -1.3876

          k = 0.2500 0.2500 0.0000 (  4007 PWs)   bands (ev):

   -10.8557  -8.6644  -8.6643  -6.5098  -4.8369  -4.2741  -4.2741  -2.9608
    -2.7729  -2.7729

          k = 0.2500 0.4167 0.0000 (  4019 PWs)   bands (ev):

   -10.3621  -9.6278  -8.1779  -7.4558  -4.3652  -3.8440  -3.6673  -3.2615
    -2.4616  -2.3072

          k = 0.4167 0.4167 0.0000 (  4005 PWs)   bands (ev):

    -9.8701  -9.1383  -9.1383  -8.4103  -3.8942  -3.1982  -3.1982  -2.5045
    -2.1136  -2.0495

     the Fermi energy is    -4.2508 ev

!    total energy              =     -49.51666962 Ry
     Harris-Foulkes estimate   =     -49.51666943 Ry
     estimated scf accuracy    <       0.00000009 Ry

     The total energy is the sum of the following terms:

     one-electron contribution =    -144.99506129 Ry
     hartree contribution      =      73.05761705 Ry
     xc contribution           =     -39.22093058 Ry
     ewald contribution        =      61.64193118 Ry
     smearing contrib. (-TS)   =      -0.00022599 Ry
     pot.stat. contrib. (-muN) =      -0.00000000 Ry

     convergence has been achieved in   8 iterations

     BFGS Geometry Optimization

     number of scf cycles    =   1
     number of bfgs steps    =   0

     grand-energy   new      =     -49.5166696191 Ry

     new trust radius        =       0.1836731730 bohr
     new conv_thr            =       0.0000010000 Ry


ATOMIC_POSITIONS (angstrom)
Al       0.000000000   0.000000000   0.000000000
Al       2.863450038   0.000000000   0.000000000
Al       0.000000000   2.863450038   0.000000000
Al       2.863450038   2.863450038   0.000000000


     FCP: Total Charge =     0.000000  ->    -0.030196
     FCP: Fermi Energy =    -0.312428 Ry (   -4.250800 eV)
     FCP: Target Level =    -0.275693 Ry (   -3.751000 eV)
     FCP: Force on FCP =     0.036735 Ry (    0.499800 eV)
     FCP: Force Thr.   =     0.000735 Ry (    0.010000 eV)



     Writing output data file Al001_bc2_FCP_vp05.save
     Check: negative starting charge=   -0.000169
     NEW-OLD atomic charge density approx. for the potential

     Check: negative/imaginary core charge=   -0.000012    0.000000
     Check: negative starting charge=   -0.000169
     extrapolated charge   12.00000, renormalised to   12.03020

     total cpu time spent up to now is        2.9 secs

     per-process dynamical memory:    10.4 Mb

     Self-consistent Calculation

     iteration #  1     ecut=    20.00 Ry     beta=0.10
     RMM-DIIS diagonalization
     ethr =  1.00E-06,  avg # of iterations =  1.5

     Threshold (ethr) on eigenvalues was too large:
     Diagonalizing with lowered threshold

     RMM-DIIS diagonalization
     ethr =  7.72E-09,  avg # of iterations =  1.5

     total cpu time spent up to now is        3.2 secs

     End of self-consistent calculation

          k = 0.0833 0.0833 0.0000 (  3999 PWs)   bands (ev):

   -11.3503  -7.7748  -7.7748  -6.0663  -6.0663  -5.3109  -4.2890  -3.4161
    -2.1229  -2.0754

          k = 0.0833 0.2500 0.0000 (  4011 PWs)   bands (ev):

   -11.1022  -8.9074  -7.5306  -5.8386  -5.3880  -5.0732  -4.4948  -3.9347
    -3.0057  -1.8445

          k = 0.0833 0.4167 0.0000 (  4016 PWs)   bands (ev):

   -10.6079  -9.8725  -7.0449  -6.3252  -5.3871  -4.7312  -4.6007  -3.9018
    -2.6600  -1.3864

          k = 0.2500 0.2500 0.0000 (  4007 PWs)   bands (ev):

   -10.8544  -8.6630  -8.6630  -6.5084  -4.8358  -4.2728  -4.2728  -2.9594
    -2.7718  -2.7717

          k = 0.2500 0.4167 0.0000 (  4019 PWs)   bands (ev):

   -10.3608  -9.6265  -8.1766  -7.4545  -4.3640  -3.8427  -3.6661  -3.2602
    -2.4603  -2.3060

          k = 0.4167 0.4167 0.0000 (  4005 PWs)   bands (ev):

    -9.8688  -9.1370  -9.1370  -8.4090  -3.8931  -3.1971  -3.1971  -2.5034
    -2.1123  -2.0482

     the Fermi energy is    -4.2410 ev

!    total energy              =     -49.51732800 Ry
     Harris-Foulkes estimate   =     -49.86624650 Ry
     estimated scf accuracy    <       0.00000084 Ry

     The total energy is the sum of the following terms:

     one-electron contribution =    -145.34682714 Ry
     hartree contribution      =      73.41846383 Ry
     xc contribution           =     -39.23904488 Ry
     ewald contribution        =      61.64193118 Ry
     smearing contrib. (-TS)   =      -0.00017589 Ry
     pot.stat. contrib. (-muN) =       0.00832490 Ry

     convergence has been achieved in   1 iterations

     number of scf cycles    =   2
     number of bfgs steps    =   1

     grand-energy   old      =     -49.5166696191 Ry
     grand-energy   new      =     -49.5173279953 Ry


     WARNING: bfgs curvature condition failed, Theta= 0.816
     new trust radius        =       0.2020404903 bohr
     new conv_thr            =       0.0000000100 Ry


ATOMIC_POSITIONS (angstrom)
Al       0.000000000   0.000000000   0.000000000
Al       2.863450038   0.000000000   0.000000000
Al       0.000000000   2.863450038   0.000000000
Al       2.863450038   2.863450038   0.000000000


     FCP: Total Charge =    -0.030196  ->    -0.063412
     FCP: Fermi Energy =    -0.311708 Ry (   -4.241009 eV)
     FCP: Target Level =    -0.275693 Ry (   -3.751000 eV)
     FCP: Force on FCP =     0.036015 Ry (    0.490009 eV)
     FCP: Force Thr.   =     0.000735 Ry (    0.010000 eV)



     Writing output data file Al001_bc2_FCP_vp05.save
     Check: negative starting charge=   -0.000169
     NEW-OLD atomic charge density approx. for the potential

     Check: negative/imaginary core charge=   -0.000012    0.000000
     Check: negative starting charge=   -0.000169
     extrapolated charge   12.03020, renormalised to   12.06341

     total cpu time spent up to now is        3.6 secs

     per-process dynamical memory:    10.4 Mb

     Self-consistent Calculation

     iteration #  1     ecut=    20.00 Ry     beta=0.10
     RMM-DIIS diagonalization
     ethr =  1.00E-06,  avg # of iterations =  2.4

     total cpu time spent up to now is        3.8 secs

     total energy              =     -49.51735827 Ry
     Harris-Foulkes estimate   =     -49.90195068 Ry
     estimated scf accuracy    <       0.00013396 Ry

     iteration #  2     ecut=    20.00 Ry     beta=0.10
     RMM-DIIS diagonalization
     ethr =  1.11E-06,  avg # of iterations =  3.5

     total cpu time spent up to now is        4.0 secs

     total energy              =     -49.51757651 Ry
     Harris-Foulkes estimate   =     -49.51750317 Ry
     estimated scf accuracy    <       0.00052058 Ry

     iteration #  3     ecut=    20.00 Ry     beta=0.10
     RMM-DIIS diagonalization
     ethr =  1.11E-06,  avg # of iterations =  2.5

     total cpu time spent up to now is        4.2 secs

     total energy              =     -49.51744613 Ry
     Harris-Foulkes estimate   =     -49.51758077 Ry
     estimated scf accuracy    <       0.00074070 Ry

     iteration #  4     ecut=    20.00 Ry     beta=0.10
     RMM-DIIS diagonalization
     ethr =  1.11E-06,  avg # of iterations =  2.5

     total cpu time spent up to now is        4.3 secs

     total energy              =     -49.51736078 Ry
     Harris-Foulkes estimate   =     -49.51745455 Ry
     estimated scf accuracy    <       0.00040449 Ry

     iteration #  5     ecut=    20.00 Ry     beta=0.10
     RMM-DIIS diagonalization
     ethr =  1.11E-06,  avg # of iterations =  2.5

     total cpu time spent up to now is        4.5 secs

     total energy              =     -49.51739290 Ry
     Harris-Foulkes estimate   =     -49.51736975 Ry
     estimated scf accuracy    <       0.00016492 Ry

     iteration #  6     ecut=    20.00 Ry     beta=0.10
     RMM-DIIS diagonalization
     ethr =  1.11E-06,  avg # of iterations =  2.5

     total cpu time spent up to now is        4.7 secs

     total energy              =     -49.51740517 Ry
     Harris-Foulkes estimate   =     -49.51739404 Ry
     estimated scf accuracy    <       0.00022918 Ry

     iteration #  7     ecut=    20.00 Ry     beta=0.10
     RMM-DIIS diagonalization
     ethr =  1.11E-06,  avg # of iterations =  2.5

     total cpu time spent up to now is        4.9 secs

     total energy              =     -49.51732206 Ry
     Harris-Foulkes estimate   =     -49.51740536 Ry
     estimated scf accuracy    <       0.00026022 Ry

     iteration #  8     ecut=    20.00 Ry     beta=0.10
     RMM-DIIS diagonalization
     ethr =  1.11E-06,  avg # of iterations =  2.5

     total cpu time spent up to now is        5.0 secs

     total energy              =     -49.51731789 Ry
     Harris-Foulkes estimate   =     -49.51733276 Ry
     estimated scf accuracy    <       0.00006333 Ry

     iteration #  9     ecut=    20.00 Ry     beta=0.10
     RMM-DIIS diagonalization
     ethr =  5.25E-07,  avg # of iterations =  2.5

     total cpu time spent up to now is        5.2 secs

     total energy              =     -49.51732009 Ry
     Harris-Foulkes estimate   =     -49.51732008 Ry
     estimated scf accuracy    <       0.00002412 Ry

     iteration # 10     ecut=    20.00 Ry     beta=0.10
     RMM-DIIS diagonalization
     ethr =  2.00E-07,  avg # of iterations =  2.5

     total cpu time spent up to now is        5.4 secs

     total energy              =     -49.51730679 Ry
     Harris-Foulkes estimate   =     -49.51732025 Ry
     estimated scf accuracy    <       0.00002453 Ry

     iteration # 11     ecut=    20.00 Ry     beta=0.10
     RMM-DIIS diagonalization
     ethr =  2.00E-07,  avg # of iterations =  2.8

     total cpu time spent up to now is        5.6 secs

     total energy              =     -49.51731155 Ry
     Harris-Foulkes estimate   =     -49.51731180 Ry
     estimated scf accuracy    <       0.00000039 Ry

     iteration # 12     ecut=    20.00 Ry     beta=0.10
     RMM-DIIS diagonalization
     ethr =  3.22E-09,  avg # of iterations =  3.4

     total cpu time spent up to now is        5.8 secs

     total energy              =     -49.51731167 Ry
     Harris-Foulkes estimate   =     -49.51731178 Ry
     estimated scf accuracy    <       0.00000032 Ry

     iteration # 13     ecut=    20.00 Ry     beta=0.10
     RMM-DIIS diagonalization
     ethr =  2.62E-09,  avg # of iterations =  2.5

     total cpu time spent up to now is        6.0 secs

     total energy              =     -49.51731355 Ry
     Harris-Foulkes estimate   =     -49.51731168 Ry
     estimated scf accuracy    <       0.00000022 Ry

     iteration # 14     ecut=    20.00 Ry     beta=0.10
     RMM-DIIS diagonalization
     ethr =  1.86E-09,  avg # of iterations =  3.7

     total cpu time spent up to now is        6.2 secs

     total energy              =     -49.51731135 Ry
     Harris-Foulkes estimate   =     -49.51731406 Ry
     estimated scf accuracy    <       0.00000565 Ry

     iteration # 15     ecut=    20.00 Ry     beta=0.10
     RMM-DIIS diagonalization
     ethr =  1.86E-09,  avg # of iterations =  3.4

     total cpu time spent up to now is        6.5 secs

     total energy              =     -49.51731134 Ry
     Harris-Foulkes estimate   =     -49.51731180 Ry
     estimated scf accuracy    <       0.00000030 Ry

     iteration # 16     ecut=    20.00 Ry     beta=0.10
     RMM-DIIS diagonalization
     ethr =  1.86E-09,  avg # of iterations =  2.9

     total cpu time spent up to now is        6.7 secs

     total energy              =     -49.51731135 Ry
     Harris-Foulkes estimate   =     -49.51731138 Ry
     estimated scf accuracy    <       0.00000027 Ry

     iteration # 17     ecut=    20.00 Ry     beta=0.10
     RMM-DIIS diagonalization
     ethr =  1.86E-09,  avg # of iterations =  3.2

     total cpu time spent up to now is        6.9 secs

     total energy              =     -49.51731151 Ry
     Harris-Foulkes estimate   =     -49.51731141 Ry
     estimated scf accuracy    <       0.00000081 Ry

     iteration # 18     ecut=    20.00 Ry     beta=0.10
     RMM-DIIS diagonalization
     ethr =  1.86E-09,  avg # of iterations =  3.2

     total cpu time spent up to now is        7.1 secs

     total energy              =     -49.51731198 Ry
     Harris-Foulkes estimate   =     -49.51731159 Ry
     estimated scf accuracy    <       0.00000012 Ry

     iteration # 19     ecut=    20.00 Ry     beta=0.10
     RMM-DIIS diagonalization
     ethr =  1.03E-09,  avg # of iterations =  3.2

     total cpu time spent up to now is        7.3 secs

     total energy              =     -49.51731196 Ry
     Harris-Foulkes estimate   =     -49.51731205 Ry
     estimated scf accuracy    <       0.00000040 Ry

     iteration # 20     ecut=    20.00 Ry     beta=0.10
     RMM-DIIS diagonalization
     ethr =  1.03E-09,  avg # of iterations =  2.5

     total cpu time spent up to now is        7.5 secs

     total energy              =     -49.51731203 Ry
     Harris-Foulkes estimate   =     -49.51731197 Ry
     estimated scf accuracy    <       0.00000031 Ry

     iteration # 21     ecut=    20.00 Ry     beta=0.10
     RMM-DIIS diagonalization
     ethr =  1.03E-09,  avg # of iterations =  3.2

     total cpu time spent up to now is        7.7 secs

     total energy              =     -49.51731179 Ry
     Harris-Foulkes estimate   =     -49.51731209 Ry
     estimated scf accuracy    <       0.00000116 Ry

     iteration # 22     ecut=    20.00 Ry     beta=0.10
     RMM-DIIS diagonalization
     ethr =  1.03E-09,  avg # of iterations =  3.5

     total cpu time spent up to now is        7.9 secs

     total energy              =     -49.51731216 Ry
     Harris-Foulkes estimate   =     -49.51731221 Ry
     estimated scf accuracy    <       0.00000029 Ry

     iteration # 23     ecut=    20.00 Ry     beta=0.10
     RMM-DIIS diagonalization
     ethr =  1.03E-09,  avg # of iterations =  2.5

     total cpu time spent up to now is        8.1 secs

     total energy              =     -49.51731201 Ry
     Harris-Foulkes estimate   =     -49.51731216 Ry
     estimated scf accuracy    <       0.00000020 Ry

     iteration # 24     ecut=    20.00 Ry     beta=0.10
     RMM-DIIS diagonalization
     ethr =  1.03E-09,  avg # of iterations =  2.6

     total cpu time spent up to now is        8.3 secs

     total energy              =     -49.51731200 Ry
     Harris-Foulkes estimate   =     -49.51731202 Ry
     estimated scf accuracy    <       0.00000003 Ry

     iteration # 25     ecut=    20.00 Ry     beta=0.10
     RMM-DIIS diagonalization
     ethr =  2.52E-10,  avg # of iterations =  3.2

     total cpu time spent up to now is        8.5 secs

     total energy              =     -49.51731199 Ry
     Harris-Foulkes estimate   =     -49.51731201 Ry
     estimated scf accuracy    <       0.00000002 Ry

     iteration # 26     ecut=    20.00 Ry     beta=0.10
     RMM-DIIS diagonalization
     ethr =  1.88E-10,  avg # of iterations =  2.6

     total cpu time spent up to now is        8.7 secs

     End of self-consistent calculation

          k = 0.0833 0.0833 0.0000 (  3999 PWs)   bands (ev):

   -10.6332  -7.0574  -7.0574  -5.3485  -5.3485  -4.6362  -3.5707  -2.6962
    -1.4070  -1.3925

          k = 0.0833 0.2500 0.0000 (  4011 PWs)   bands (ev):

   -10.3850  -8.1901  -6.8132  -5.1207  -4.6702  -4.3982  -3.7768  -3.2158
    -2.3272  -1.1614

          k = 0.0833 0.4167 0.0000 (  4016 PWs)   bands (ev):

    -9.8907  -9.1552  -6.3275  -5.6076  -4.6691  -4.0129  -3.9251  -3.2252
    -1.9418  -0.7025

          k = 0.2500 0.2500 0.0000 (  4007 PWs)   bands (ev):

   -10.1372  -7.9457  -7.9457  -5.7908  -4.1606  -3.5547  -3.5547  -2.2395
    -2.0929  -2.0929

          k = 0.2500 0.4167 0.0000 (  4019 PWs)   bands (ev):

    -9.6436  -8.9092  -7.4592  -6.7370  -3.6882  -3.1244  -2.9892  -2.5413
    -1.7420  -1.6265

          k = 0.4167 0.4167 0.0000 (  4005 PWs)   bands (ev):

    -9.1515  -8.4197  -8.4197  -7.6916  -3.2166  -2.5195  -2.5195  -1.8250
    -1.3933  -1.3281

     the Fermi energy is    -3.5284 ev

!    total energy              =     -49.51731197 Ry
     Harris-Foulkes estimate   =     -49.51731199 Ry
     estimated scf accuracy    <          8.5E-11 Ry

     The total energy is the sum of the following terms:

     one-electron contribution =    -145.62712448 Ry
     hartree contribution      =      73.69391506 Ry
     xc contribution           =     -39.24339047 Ry
     ewald contribution        =      61.64193118 Ry
     smearing contrib. (-TS)   =      -0.00012556 Ry
     pot.stat. contrib. (-muN) =       0.01748230 Ry

     convergence has been achieved in  26 iterations

     number of scf cycles    =   3
     number of bfgs steps    =   2

     grand-energy   old      =     -49.5173279953 Ry
     grand-energy   new      =     -49.5173119711 Ry

     new trust radius        =       0.0631142255 bohr
     new conv_thr            =       0.0000000100 Ry


ATOMIC_POSITIONS (angstrom)
Al       0.000000000   0.000000000   0.000000000
Al       2.863450038   0.000000000   0.000000000
Al       0.000000000   2.863450038   0.000000000
Al       2.863450038   2.863450038   0.000000000


     FCP: Total Charge =    -0.063412  ->    -0.053036
     FCP: Fermi Energy =    -0.259332 Ry (   -3.528389 eV)
     FCP: Target Level =    -0.275693 Ry (   -3.751000 eV)
     FCP: Force on FCP =    -0.016362 Ry (   -0.222611 eV)
     FCP: Force Thr.   =     0.000735 Ry (    0.010000 eV)



     Writing output data file Al001_bc2_FCP_vp05.save
     Check: negative starting charge=   -0.000169
     NEW-OLD atomic charge density approx. for the potential

     Check: negative/imaginary core charge=   -0.000012    0.000000
     Check: negative starting charge=   -0.000169
     extrapolated charge   12.06341, renormalised to   12.05304

     total cpu time spent up to now is        9.0 secs

     per-process dynamical memory:    12.1 Mb

     Self-consistent Calculation

     iteration #  1     ecut=    20.00 Ry     beta=0.10
     RMM-DIIS diagonalization
     ethr =  1.00E-06,  avg # of iterations =  1.5

     Threshold (ethr) on eigenvalues was too large:
     Diagonalizing with lowered threshold

     RMM-DIIS diagonalization
     ethr =  7.78E-10,  avg # of iterations =  1.5

     total cpu time spent up to now is        9.3 secs

     total energy              =     -49.51742881 Ry
     Harris-Foulkes estimate   =     -49.39729534 Ry
     estimated scf accuracy    <       0.00000009 Ry

     iteration #  2     ecut=    20.00 Ry     beta=0.10
     RMM-DIIS diagonalization
     ethr =  7.76E-10,  avg # of iterations =  4.5

     total cpu time spent up to now is        9.6 secs

     total energy              =     -49.51744397 Ry
     Harris-Foulkes estimate   =     -49.51744378 Ry
     estimated scf accuracy    <       0.00001882 Ry

     iteration #  3     ecut=    20.00 Ry     beta=0.10
     RMM-DIIS diagonalization
     ethr =  7.76E-10,  avg # of iterations =  2.5

     total cpu time spent up to now is        9.8 secs

     total energy              =     -49.51744386 Ry
     Harris-Foulkes estimate   =     -49.51744397 Ry
     estimated scf accuracy    <       0.00001941 Ry

     iteration #  4     ecut=    20.00 Ry     beta=0.10
     RMM-DIIS diagonalization
     ethr =  7.76E-10,  avg # of iterations =  2.5

     total cpu time spent up to now is        9.9 secs

     total energy              =     -49.51744284 Ry
     Harris-Foulkes estimate   =     -49.51744387 Ry
     estimated scf accuracy    <       0.00001912 Ry

     iteration #  5     ecut=    20.00 Ry     beta=0.10
     RMM-DIIS diagonalization
     ethr =  7.76E-10,  avg # of iterations =  2.6

     total cpu time spent up to now is       10.1 secs

     total energy              =     -49.51743974 Ry
     Harris-Foulkes estimate   =     -49.51744286 Ry
     estimated scf accuracy    <       0.00001652 Ry

     iteration #  6     ecut=    20.00 Ry     beta=0.10
     RMM-DIIS diagonalization
     ethr =  7.76E-10,  avg # of iterations =  3.4

     total cpu time spent up to now is       10.3 secs

     total energy              =     -49.51743970 Ry
     Harris-Foulkes estimate   =     -49.51743994 Ry
     estimated scf accuracy    <       0.00000876 Ry

     iteration #  7     ecut=    20.00 Ry     beta=0.10
     RMM-DIIS diagonalization
     ethr =  7.76E-10,  avg # of iterations =  2.5

     total cpu time spent up to now is       10.5 secs

     total energy              =     -49.51743699 Ry
     Harris-Foulkes estimate   =     -49.51743971 Ry
     estimated scf accuracy    <       0.00000807 Ry

     iteration #  8     ecut=    20.00 Ry     beta=0.10
     RMM-DIIS diagonalization
     ethr =  7.76E-10,  avg # of iterations =  3.8

     total cpu time spent up to now is       10.8 secs

     total energy              =     -49.51743626 Ry
     Harris-Foulkes estimate   =     -49.51743734 Ry
     estimated scf accuracy    <       0.00000189 Ry

     iteration #  9     ecut=    20.00 Ry     beta=0.10
     RMM-DIIS diagonalization
     ethr =  7.76E-10,  avg # of iterations =  3.8

     total cpu time spent up to now is       11.0 secs

     End of self-consistent calculation

          k = 0.0833 0.0833 0.0000 (  3999 PWs)   bands (ev):

   -10.7506  -7.1749  -7.1749  -5.4660  -5.4660  -4.7466  -3.6883  -2.8141
    -1.5243  -1.5043

          k = 0.0833 0.2500 0.0000 (  4011 PWs)   bands (ev):

   -10.5024  -8.3075  -6.9307  -5.2382  -4.7877  -4.5087  -3.8943  -3.3335
    -2.4383  -1.2732

          k = 0.0833 0.4167 0.0000 (  4016 PWs)   bands (ev):

   -10.0082  -9.2727  -6.4450  -5.7251  -4.7866  -4.1305  -4.0357  -3.3359
    -2.0594  -0.8145

          k = 0.2500 0.2500 0.0000 (  4007 PWs)   bands (ev):

   -10.2546  -8.0631  -8.0631  -5.9083  -4.2711  -3.6723  -3.6723  -2.3574
    -2.2040  -2.2040

          k = 0.2500 0.4167 0.0000 (  4019 PWs)   bands (ev):

    -9.7610  -9.0267  -7.5767  -6.8545  -3.7988  -3.2420  -3.1000  -2.6591
    -1.8596  -1.7377

          k = 0.4167 0.4167 0.0000 (  4005 PWs)   bands (ev):

    -9.2690  -8.5371  -8.5371  -7.8091  -3.3273  -2.6304  -2.6304  -1.9362
    -1.5110  -1.4460

     the Fermi energy is    -3.6465 ev

!    total energy              =     -49.51743666 Ry
     Harris-Foulkes estimate   =     -49.51743656 Ry
     estimated scf accuracy    <          5.6E-09 Ry

     The total energy is the sum of the following terms:

     one-electron contribution =    -145.52416645 Ry
     hartree contribution      =      73.59004264 Ry
     xc contribution           =     -39.23973377 Ry
     ewald contribution        =      61.64193118 Ry
     smearing contrib. (-TS)   =      -0.00013195 Ry
     pot.stat. contrib. (-muN) =       0.01462167 Ry

     convergence has been achieved in   9 iterations

     number of scf cycles    =   4
     number of bfgs steps    =   3

     grand-energy   old      =     -49.5173119711 Ry
     grand-energy   new      =     -49.5174366646 Ry

     new trust radius        =       0.0558795466 bohr
     new conv_thr            =       0.0000000100 Ry


ATOMIC_POSITIONS (angstrom)
Al       0.000000000   0.000000000   0.000000000
Al       2.863450038   0.000000000   0.000000000
Al       0.000000000   2.863450038   0.000000000
Al       2.863450038   2.863450038   0.000000000


     FCP: Total Charge =    -0.053036  ->    -0.043849
     FCP: Fermi Energy =    -0.268010 Ry (   -3.646462 eV)
     FCP: Target Level =    -0.275693 Ry (   -3.751000 eV)
     FCP: Force on FCP =    -0.007683 Ry (   -0.104538 eV)
     FCP: Force Thr.   =     0.000735 Ry (    0.010000 eV)



     Writing output data file Al001_bc2_FCP_vp05.save
     Check: negative starting charge=   -0.000169
     NEW-OLD atomic charge density approx. for the potential

     Check: negative/imaginary core charge=   -0.000012    0.000000
     Check: negative starting charge=   -0.000169
     extrapolated charge   12.05304, renormalised to   12.04385

     total cpu time spent up to now is       11.3 secs

     per-process dynamical memory:    12.1 Mb

     Self-consistent Calculation

     iteration #  1     ecut=    20.00 Ry     beta=0.10
     RMM-DIIS diagonalization
     ethr =  1.00E-06,  avg # of iterations =  1.5

     Threshold (ethr) on eigenvalues was too large:
     Diagonalizing with lowered threshold

     RMM-DIIS diagonalization
     ethr =  5.09E-10,  avg # of iterations =  1.5

     total cpu time spent up to now is       11.6 secs

     total energy              =     -49.51746599 Ry
     Harris-Foulkes estimate   =     -49.41116120 Ry
     estimated scf accuracy    <       0.00000006 Ry

     iteration #  2     ecut=    20.00 Ry     beta=0.10
     RMM-DIIS diagonalization
     ethr =  5.02E-10,  avg # of iterations =  4.5

     total cpu time spent up to now is       11.9 secs

     total energy              =     -49.51747775 Ry
     Harris-Foulkes estimate   =     -49.51747762 Ry
     estimated scf accuracy    <       0.00001443 Ry

     iteration #  3     ecut=    20.00 Ry     beta=0.10
     RMM-DIIS diagonalization
     ethr =  5.02E-10,  avg # of iterations =  2.6

     total cpu time spent up to now is       12.1 secs

     total energy              =     -49.51747777 Ry
     Harris-Foulkes estimate   =     -49.51747775 Ry
     estimated scf accuracy    <       0.00001484 Ry

     iteration #  4     ecut=    20.00 Ry     beta=0.10
     RMM-DIIS diagonalization
     ethr =  5.02E-10,  avg # of iterations =  2.5

     total cpu time spent up to now is       12.3 secs

     total energy              =     -49.51747813 Ry
     Harris-Foulkes estimate   =     -49.51747777 Ry
     estimated scf accuracy    <       0.00001489 Ry

     iteration #  5     ecut=    20.00 Ry     beta=0.10
     RMM-DIIS diagonalization
     ethr =  5.02E-10,  avg # of iterations =  2.5

     total cpu time spent up to now is       12.4 secs

     total energy              =     -49.51747453 Ry
     Harris-Foulkes estimate   =     -49.51747814 Ry
     estimated scf accuracy    <       0.00001587 Ry

     iteration #  6     ecut=    20.00 Ry     beta=0.10
     RMM-DIIS diagonalization
     ethr =  5.02E-10,  avg # of iterations =  3.7

     total cpu time spent up to now is       12.7 secs

     total energy              =     -49.51747481 Ry
     Harris-Foulkes estimate   =     -49.51747481 Ry
     estimated scf accuracy    <       0.00000711 Ry

     iteration #  7     ecut=    20.00 Ry     beta=0.10
     RMM-DIIS diagonalization
     ethr =  5.02E-10,  avg # of iterations =  2.5

     total cpu time spent up to now is       12.9 secs

     total energy              =     -49.51747315 Ry
     Harris-Foulkes estimate   =     -49.51747481 Ry
     estimated scf accuracy    <       0.00000712 Ry

     iteration #  8     ecut=    20.00 Ry     beta=0.10
     RMM-DIIS diagonalization
     ethr =  5.02E-10,  avg # of iterations =  3.5

     total cpu time spent up to now is       13.1 secs

     total energy              =     -49.51747141 Ry
     Harris-Foulkes estimate   =     -49.51747329 Ry
     estimated scf accuracy    <       0.00000316 Ry

     iteration #  9     ecut=    20.00 Ry     beta=0.10
     RMM-DIIS diagonalization
     ethr =  5.02E-10,  avg # of iterations =  4.0

     total cpu time spent up to now is       13.3 secs

     total energy              =     -49.51747196 Ry
     Harris-Foulkes estimate   =     -49.51747197 Ry
     estimated scf accuracy    <       0.00000005 Ry

     iteration # 10     ecut=    20.00 Ry     beta=0.10
     RMM-DIIS diagonalization
     ethr =  4.41E-10,  avg # of iterations =  2.5

     total cpu time spent up to now is       13.5 secs

     total energy              =     -49.51747189 Ry
     Harris-Foulkes estimate   =     -49.51747196 Ry
     estimated scf accuracy    <       0.00000006 Ry

     iteration # 11     ecut=    20.00 Ry     beta=0.10
     RMM-DIIS diagonalization
     ethr =  4.41E-10,  avg # of iterations =  2.5

     total cpu time spent up to now is       13.7 secs

     total energy              =     -49.51747191 Ry
     Harris-Foulkes estimate   =     -49.51747189 Ry
     estimated scf accuracy    <       0.00000007 Ry

     iteration # 12     ecut=    20.00 Ry     beta=0.10
     RMM-DIIS diagonalization
     ethr =  4.41E-10,  avg # of iterations =  2.5

     total cpu time spent up to now is       13.9 secs

     total energy              =     -49.51747213 Ry
     Harris-Foulkes estimate   =     -49.51747191 Ry
     estimated scf accuracy    <       0.00000007 Ry

     iteration # 13     ecut=    20.00 Ry     beta=0.10
     RMM-DIIS diagonalization
     ethr =  4.41E-10,  avg # of iterations =  2.5

     total cpu time spent up to now is       14.0 secs

     total energy              =     -49.51747202 Ry
     Harris-Foulkes estimate   =     -49.51747213 Ry
     estimated scf accuracy    <       0.00000004 Ry

     iteration # 14     ecut=    20.00 Ry     beta=0.10
     RMM-DIIS diagonalization
     ethr =  3.33E-10,  avg # of iterations =  2.5

     total cpu time spent up to now is       14.2 secs

     total energy              =     -49.51747214 Ry
     Harris-Foulkes estimate   =     -49.51747202 Ry
     estimated scf accuracy    <       0.00000007 Ry

     iteration # 15     ecut=    20.00 Ry     beta=0.10
     RMM-DIIS diagonalization
     ethr =  3.33E-10,  avg # of iterations =  2.5

     total cpu time spent up to now is       14.4 secs

     total energy              =     -49.51747221 Ry
     Harris-Foulkes estimate   =     -49.51747214 Ry
     estimated scf accuracy    <       0.00000001 Ry

     iteration # 16     ecut=    20.00 Ry     beta=0.10
     RMM-DIIS diagonalization
     ethr =  1.18E-10,  avg # of iterations =  2.5

     total cpu time spent up to now is       14.6 secs

     End of self-consistent calculation

          k = 0.0833 0.0833 0.0000 (  3999 PWs)   bands (ev):

   -10.8535  -7.2778  -7.2778  -5.5690  -5.5690  -4.8435  -3.7914  -2.9174
    -1.6270  -1.6024

          k = 0.0833 0.2500 0.0000 (  4011 PWs)   bands (ev):

   -10.6053  -8.4105  -7.0336  -5.3412  -4.8907  -4.6056  -3.9974  -3.4367
    -2.5357  -1.3713

          k = 0.0833 0.4167 0.0000 (  4016 PWs)   bands (ev):

   -10.1111  -9.3756  -6.5479  -5.8281  -4.8897  -4.2336  -4.1327  -3.4331
    -2.1624  -0.9127

          k = 0.2500 0.2500 0.0000 (  4007 PWs)   bands (ev):

   -10.3576  -8.1661  -8.1661  -6.0113  -4.3680  -3.7753  -3.7753  -2.4607
    -2.3015  -2.3015

          k = 0.2500 0.4167 0.0000 (  4019 PWs)   bands (ev):

    -9.8639  -9.1296  -7.6797  -6.9574  -3.8958  -3.3451  -3.1972  -2.7622
    -1.9627  -1.8353

          k = 0.4167 0.4167 0.0000 (  4005 PWs)   bands (ev):

    -9.3719  -8.6401  -8.6401  -7.9120  -3.4245  -2.7277  -2.7277  -2.0336
    -1.6142  -1.5494

     the Fermi energy is    -3.7500 ev

!    total energy              =     -49.51747219 Ry
     Harris-Foulkes estimate   =     -49.51747222 Ry
     estimated scf accuracy    <          3.1E-09 Ry

     The total energy is the sum of the following terms:

     one-electron contribution =    -145.43259375 Ry
     hartree contribution      =      73.49766953 Ry
     xc contribution           =     -39.23642710 Ry
     ewald contribution        =      61.64193118 Ry
     smearing contrib. (-TS)   =      -0.00014100 Ry
     pot.stat. contrib. (-muN) =       0.01208896 Ry

     convergence has been achieved in  16 iterations

     bfgs converged in   5 scf cycles and   4 bfgs steps
     (criteria: energy <  1.0E-04 Ry, force <  1.0E-03 Ry/Bohr)
     (criteria: force on FCP <  1.0E-02 eV)

     End of BFGS Geometry Optimization

     Final grand-energy   =     -49.5174721874 Ry
Begin final coordinates

ATOMIC_POSITIONS (angstrom)
Al       0.000000000   0.000000000   0.000000000
Al       2.863450038   0.000000000   0.000000000
Al       0.000000000   2.863450038   0.000000000
Al       2.863450038   2.863450038   0.000000000
End final coordinates


     FCP: Total Charge =    -0.043849
     FCP: Fermi Energy =    -0.275620 Ry (   -3.750004 eV)
     FCP: Target Level =    -0.275693 Ry (   -3.751000 eV)
     FCP: Force on FCP =    -0.000073 Ry (   -0.000996 eV)
     FCP: Force Thr.   =     0.000735 Ry (    0.010000 eV)



     Writing output data file Al001_bc2_FCP_vp05.save

     init_run     :      0.49s CPU      0.50s WALL (       1 calls)
     electrons    :     12.70s CPU     12.86s WALL (       5 calls)
     update_pot   :      0.69s CPU      0.74s WALL (       4 calls)

     Called by init_run:
     wfcinit      :      0.11s CPU      0.11s WALL (       1 calls)
     potinit      :      0.08s CPU      0.09s WALL (       1 calls)

     Called by electrons:
     c_bands      :      8.35s CPU      8.42s WALL (      64 calls)
     sum_band     :      2.30s CPU      2.31s WALL (      64 calls)
     v_of_rho     :      1.51s CPU      1.51s WALL (      65 calls)
     newd         :      0.40s CPU      0.40s WALL (      65 calls)
     mix_rho      :      0.22s CPU      0.22s WALL (      64 calls)

     Called by c_bands:
     init_us_2    :      0.25s CPU      0.26s WALL (     774 calls)
     crmmdiagg    :      5.14s CPU      5.19s WALL (     384 calls)
     wfcrot       :      2.91s CPU      2.92s WALL (     336 calls)
     gsorth       :      0.23s CPU      0.23s WALL (     384 calls)

     Called by sum_band:
     sum_band:bec :      0.00s CPU      0.00s WALL (     384 calls)
     addusdens    :      0.43s CPU      0.43s WALL (      64 calls)

     Called by *rmmdiagg:
     h_psi        :      6.97s CPU      6.99s WALL (    1103 calls)
     s_psi        :      0.15s CPU      0.18s WALL (    1103 calls)
     cdiaghg      :      0.02s CPU      0.03s WALL (     336 calls)

     Called by h_psi:
     h_psi:pot    :      6.94s CPU      6.96s WALL (    1103 calls)
     h_psi:calbec :      0.24s CPU      0.22s WALL (    1103 calls)
     vloc_psi     :      6.50s CPU      6.55s WALL (    1103 calls)
     add_vuspsi   :      0.19s CPU      0.18s WALL (    1103 calls)

     General routines
     calbec       :      0.32s CPU      0.30s WALL (    1487 calls)
     fft          :      0.55s CPU      0.55s WALL (     856 calls)
     fftw         :      7.07s CPU      7.10s WALL (   22484 calls)
     davcio       :      0.00s CPU      0.00s WALL (       6 calls)

     Parallel routines
     fft_scatter  :      1.97s CPU      1.96s WALL (   23340 calls)

     PWSCF        :    14.28s CPU        14.73s WALL


   This run was terminated on:  17:27:57  11Jan2021            

=------------------------------------------------------------------------------=
   JOB DONE.
=------------------------------------------------------------------------------=
