
     Program PWSCF v.6.1 starts on 11Jan2021 at 17:27:16 

     This program is part of the open-source Quantum ESPRESSO suite
     for quantum simulation of materials; please cite
         "P. Giannozzi et al., J. Phys.:Condens. Matter 21 395502 (2009);
          URL http://www.quantum-espresso.org", 
     in publications or presentations arising from this work. More details at
     http://www.quantum-espresso.org/quote

     Parallel version (MPI), running on     4 processors
     R & G space division:  proc/nbgrp/npool/nimage =       4
     Waiting for input...
     Reading input from standard input

     Current dimensions of program PWSCF are:
     Max number of different atomic species (ntypx) = 10
     Max number of k-points (npk) =  40000
     Max angular momentum in pseudopotentials (lmaxx) =  3

     Subspace diagonalization in iterative solution of the eigenvalue problem:
     a serial algorithm will be used

     Found symmetry operation: I + ( -0.5000  0.0000  0.0000)
     This is a supercell, fractional translations are disabled

     Parallelization info
     --------------------
     sticks:   dense  smooth     PW     G-vecs:    dense   smooth      PW
     Min         187     187     54                 8037     8037    1261
     Max         188     188     56                 8044     8044    1262
     Sum         749     749    221                32157    32157    5047



     bravais-lattice index     =            0
     lattice parameter (alat)  =      10.8223  a.u.
     unit-cell volume          =    2655.9321 (a.u.)^3
     number of atoms/cell      =            4
     number of atomic types    =            1
     number of electrons       =        12.00
     number of Kohn-Sham states=           10
     kinetic-energy cutoff     =      20.0000  Ry
     charge density cutoff     =      80.0000  Ry
     convergence threshold     =      1.0E-06
     mixing beta               =       0.1000
     number of iterations used =            8  plain     mixing
     Exchange-correlation      =  SLA  PW   PBE  PBE ( 1  4  3  4 0 0)

     Effective Screening Medium Method
     =================================
     Boundary Conditions: Metal-Slab-Metal
     total charge in unit cell        =   0.0000
     grid points for fit at edges     =        4 


     celldm(1)=  10.822273  celldm(2)=   0.000000  celldm(3)=   0.000000
     celldm(4)=   0.000000  celldm(5)=   0.000000  celldm(6)=   0.000000

     crystal axes: (cart. coord. in units of alat)
               a(1) = (   1.000000   0.000000   0.000000 )  
               a(2) = (   0.000000   1.000000   0.000000 )  
               a(3) = (   0.000000   0.000000   2.095374 )  

     reciprocal axes: (cart. coord. in units 2 pi/alat)
               b(1) = (  1.000000  0.000000  0.000000 )  
               b(2) = (  0.000000  1.000000  0.000000 )  
               b(3) = (  0.000000  0.000000  0.477242 )  


     PseudoPot. # 1 for Al read from file:
     /home1/gler/share/qe-6.1-rism/pseudo/Al.pbe-n-van.UPF
     MD5 check sum: b11ded24487aef5bc42d5c7a2e22a7b6
     Pseudo is Ultrasoft + core correction, Zval =  3.0
     Generated by new atomic code, or converted to UPF format
     Using radial grid of  893 points,  2 beta functions with: 
                l(1) =   0
                l(2) =   1
     Q(r) pseudized with  8 coefficients,  rinner =    0.900   0.900   0.900


     atomic species   valence    mass     pseudopotential
        Al             3.00    26.98154     Al( 1.00)

     16 Sym. Ops., with inversion, found



   Cartesian axes

     site n.     atom                  positions (alat units)
         1           Al  tau(   1) = (   0.0000000   0.0000000   0.0000000  )
         2           Al  tau(   2) = (   0.5000000   0.0000000   0.0000000  )
         3           Al  tau(   3) = (   0.0000000   0.5000000   0.0000000  )
         4           Al  tau(   4) = (   0.5000000   0.5000000   0.0000000  )

     number of k points=     6  Methfessel-Paxton smearing, width (Ry)=  0.0300
                       cart. coord. in units 2pi/alat
        k(    1) = (   0.0833333   0.0833333   0.0000000), wk =   0.2222222
        k(    2) = (   0.0833333   0.2500000   0.0000000), wk =   0.4444444
        k(    3) = (   0.0833333   0.4166667   0.0000000), wk =   0.4444444
        k(    4) = (   0.2500000   0.2500000   0.0000000), wk =   0.2222222
        k(    5) = (   0.2500000   0.4166667   0.0000000), wk =   0.4444444
        k(    6) = (   0.4166667   0.4166667   0.0000000), wk =   0.2222222

     Dense  grid:    32157 G-vectors     FFT dimensions: (  32,  32,  72)

     Estimated max dynamical RAM per process >       8.41MB

     Estimated total allocated dynamical RAM >      33.64MB

     Check: negative/imaginary core charge=   -0.000012    0.000000

     Initial potential from superposition of free atoms
     Check: negative starting charge=   -0.000169

     starting charge   11.99014, renormalised to   12.00000

     negative rho (up, down):  1.687E-04 0.000E+00
     Starting wfc are   16 randomized atomic wfcs

     total cpu time spent up to now is        0.5 secs

     per-process dynamical memory:     6.6 Mb

     Self-consistent Calculation

     iteration #  1     ecut=    20.00 Ry     beta=0.10
     RMM-DIIS diagonalization
     ethr =  1.00E-02,  avg # of iterations =  2.3

     Threshold (ethr) on eigenvalues was too large:
     Diagonalizing with lowered threshold

     RMM-DIIS diagonalization
     ethr =  5.22E-04,  avg # of iterations =  2.1

     negative rho (up, down):  1.411E-04 0.000E+00

     total cpu time spent up to now is        1.0 secs

     total energy              =     -49.53187404 Ry
     Harris-Foulkes estimate   =     -49.53893296 Ry
     estimated scf accuracy    <       0.07723161 Ry

     iteration #  2     ecut=    20.00 Ry     beta=0.10
     RMM-DIIS diagonalization
     ethr =  6.44E-04,  avg # of iterations =  2.5

     negative rho (up, down):  1.510E-05 0.000E+00

     total cpu time spent up to now is        1.2 secs

     total energy              =     -49.50863969 Ry
     Harris-Foulkes estimate   =     -49.53338168 Ry
     estimated scf accuracy    <       0.05719887 Ry

     iteration #  3     ecut=    20.00 Ry     beta=0.10
     RMM-DIIS diagonalization
     ethr =  4.77E-04,  avg # of iterations =  2.5

     negative rho (up, down):  1.806E-05 0.000E+00

     total cpu time spent up to now is        1.4 secs

     total energy              =     -49.51611461 Ry
     Harris-Foulkes estimate   =     -49.51662535 Ry
     estimated scf accuracy    <       0.00219639 Ry

     iteration #  4     ecut=    20.00 Ry     beta=0.10
     RMM-DIIS diagonalization
     ethr =  1.83E-05,  avg # of iterations =  3.5

     negative rho (up, down):  1.075E-07 0.000E+00

     total cpu time spent up to now is        1.7 secs

     total energy              =     -49.51645951 Ry
     Harris-Foulkes estimate   =     -49.51708623 Ry
     estimated scf accuracy    <       0.00187284 Ry

     iteration #  5     ecut=    20.00 Ry     beta=0.10
     RMM-DIIS diagonalization
     ethr =  1.56E-05,  avg # of iterations =  2.6

     negative rho (up, down):  2.424E-08 0.000E+00

     total cpu time spent up to now is        1.9 secs

     total energy              =     -49.51664184 Ry
     Harris-Foulkes estimate   =     -49.51664272 Ry
     estimated scf accuracy    <       0.00002750 Ry

     iteration #  6     ecut=    20.00 Ry     beta=0.10
     RMM-DIIS diagonalization
     ethr =  2.29E-07,  avg # of iterations =  4.2

     total cpu time spent up to now is        2.2 secs

     total energy              =     -49.51667240 Ry
     Harris-Foulkes estimate   =     -49.51667170 Ry
     estimated scf accuracy    <       0.00002096 Ry

     iteration #  7     ecut=    20.00 Ry     beta=0.10
     RMM-DIIS diagonalization
     ethr =  1.75E-07,  avg # of iterations =  2.5

     total cpu time spent up to now is        2.4 secs

     total energy              =     -49.51666835 Ry
     Harris-Foulkes estimate   =     -49.51667289 Ry
     estimated scf accuracy    <       0.00001173 Ry

     iteration #  8     ecut=    20.00 Ry     beta=0.10
     RMM-DIIS diagonalization
     ethr =  9.78E-08,  avg # of iterations =  2.5

     total cpu time spent up to now is        2.6 secs

     End of self-consistent calculation

          k = 0.0833 0.0833 0.0000 (  3999 PWs)   bands (ev):

   -11.3516  -7.7762  -7.7761  -6.0676  -6.0676  -5.3120  -4.2903  -3.4174
    -2.1242  -2.0766

          k = 0.0833 0.2500 0.0000 (  4011 PWs)   bands (ev):

   -11.1035  -8.9087  -7.5320  -5.8399  -5.3893  -5.0743  -4.4961  -3.9360
    -3.0069  -1.8457

          k = 0.0833 0.4167 0.0000 (  4016 PWs)   bands (ev):

   -10.6092  -9.8738  -7.0463  -6.3265  -5.3884  -4.7325  -4.6018  -3.9029
    -2.6613  -1.3876

          k = 0.2500 0.2500 0.0000 (  4007 PWs)   bands (ev):

   -10.8557  -8.6644  -8.6643  -6.5098  -4.8369  -4.2741  -4.2741  -2.9608
    -2.7729  -2.7729

          k = 0.2500 0.4167 0.0000 (  4019 PWs)   bands (ev):

   -10.3621  -9.6278  -8.1779  -7.4558  -4.3652  -3.8440  -3.6673  -3.2615
    -2.4616  -2.3072

          k = 0.4167 0.4167 0.0000 (  4005 PWs)   bands (ev):

    -9.8701  -9.1383  -9.1383  -8.4103  -3.8942  -3.1982  -3.1982  -2.5045
    -2.1136  -2.0495

     the Fermi energy is    -4.2508 ev

!    total energy              =     -49.51666962 Ry
     Harris-Foulkes estimate   =     -49.51666943 Ry
     estimated scf accuracy    <       0.00000009 Ry

     The total energy is the sum of the following terms:

     one-electron contribution =    -144.99506129 Ry
     hartree contribution      =      73.05761705 Ry
     xc contribution           =     -39.22093058 Ry
     ewald contribution        =      61.64193118 Ry
     smearing contrib. (-TS)   =      -0.00022599 Ry

     convergence has been achieved in   8 iterations

     Forces acting on atoms (cartesian axes, Ry/au):

     atom    1 type  1   force =     0.00000000    0.00000000    0.00000000
     atom    2 type  1   force =     0.00000000    0.00000000    0.00000000
     atom    3 type  1   force =     0.00000000    0.00000000    0.00000000
     atom    4 type  1   force =     0.00000000    0.00000000    0.00000000

     Total force =     0.000000     Total SCF correction =     0.000000

     Writing output data file Al001_bc2.save

     init_run     :      0.50s CPU      0.50s WALL (       1 calls)
     electrons    :      2.06s CPU      2.11s WALL (       1 calls)
     forces       :      0.19s CPU      0.19s WALL (       1 calls)

     Called by init_run:
     wfcinit      :      0.11s CPU      0.11s WALL (       1 calls)
     potinit      :      0.09s CPU      0.09s WALL (       1 calls)

     Called by electrons:
     c_bands      :      1.39s CPU      1.41s WALL (       9 calls)
     sum_band     :      0.36s CPU      0.37s WALL (       9 calls)
     v_of_rho     :      0.24s CPU      0.24s WALL (       9 calls)
     newd         :      0.06s CPU      0.07s WALL (       9 calls)
     mix_rho      :      0.02s CPU      0.02s WALL (       9 calls)

     Called by c_bands:
     init_us_2    :      0.05s CPU      0.05s WALL (     120 calls)
     crmmdiagg    :      0.91s CPU      0.93s WALL (      54 calls)
     wfcrot       :      0.51s CPU      0.51s WALL (      48 calls)
     gsorth       :      0.04s CPU      0.04s WALL (      54 calls)

     Called by sum_band:
     sum_band:bec :      0.00s CPU      0.00s WALL (      54 calls)
     addusdens    :      0.07s CPU      0.07s WALL (       9 calls)

     Called by *rmmdiagg:
     h_psi        :      1.24s CPU      1.24s WALL (     173 calls)
     s_psi        :      0.03s CPU      0.03s WALL (     173 calls)
     cdiaghg      :      0.01s CPU      0.01s WALL (      48 calls)

     Called by h_psi:
     h_psi:pot    :      1.23s CPU      1.23s WALL (     173 calls)
     h_psi:calbec :      0.05s CPU      0.04s WALL (     173 calls)
     vloc_psi     :      1.16s CPU      1.16s WALL (     173 calls)
     add_vuspsi   :      0.03s CPU      0.03s WALL (     173 calls)

     General routines
     calbec       :      0.06s CPU      0.06s WALL (     251 calls)
     fft          :      0.10s CPU      0.10s WALL (     130 calls)
     fftw         :      1.23s CPU      1.24s WALL (    3400 calls)
     davcio       :      0.00s CPU      0.00s WALL (       6 calls)

     Parallel routines
     fft_scatter  :      0.32s CPU      0.33s WALL (    3530 calls)

     PWSCF        :     2.84s CPU         2.98s WALL


   This run was terminated on:  17:27:19  11Jan2021            

=------------------------------------------------------------------------------=
   JOB DONE.
=------------------------------------------------------------------------------=
