
     Program PWSCF v.6.1 starts on 11Jan2021 at 17:28:48 

     This program is part of the open-source Quantum ESPRESSO suite
     for quantum simulation of materials; please cite
         "P. Giannozzi et al., J. Phys.:Condens. Matter 21 395502 (2009);
          URL http://www.quantum-espresso.org", 
     in publications or presentations arising from this work. More details at
     http://www.quantum-espresso.org/quote

     Parallel version (MPI), running on     4 processors
     R & G space division:  proc/nbgrp/npool/nimage =       4
     Waiting for input...
     Reading input from standard input

     Current dimensions of program PWSCF are:
     Max number of different atomic species (ntypx) = 10
     Max number of k-points (npk) =  40000
     Max angular momentum in pseudopotentials (lmaxx) =  3
     Message from routine iosys:
     mixing_mode=plain is ignored, 'TF' is adopted
     Message from routine iosys:
     accurate eigenvalues are required for all states: diago_full_acc=.TRUE.
     Message from routine iosys:
     eigenvalues have to be converged: diago_rmm_conv=.TRUE.

     Subspace diagonalization in iterative solution of the eigenvalue problem:
     a serial algorithm will be used

     Found symmetry operation: I + ( -0.5000  0.0000  0.0000)
     This is a supercell, fractional translations are disabled

     Parallelization info
     --------------------
     sticks:   dense  smooth     PW     G-vecs:    dense   smooth      PW
     Min         187     187     54                 8037     8037    1261
     Max         188     188     56                 8044     8044    1262
     Sum         749     749    221                32157    32157    5047



     bravais-lattice index     =            0
     lattice parameter (alat)  =      10.8223  a.u.
     unit-cell volume          =    2655.9321 (a.u.)^3
     number of atoms/cell      =            4
     number of atomic types    =            1
     number of electrons       =        12.00
     number of Kohn-Sham states=           10
     kinetic-energy cutoff     =      20.0000  Ry
     charge density cutoff     =      80.0000  Ry
     convergence threshold     =      1.0E-06
     mixing beta               =       0.1000
     number of iterations used =            8  TF        mixing
     Exchange-correlation      =  SLA  PW   PBE  PBE ( 1  4  3  4 0 0)

     Effective Screening Medium Method
     =================================
     Boundary Conditions: Metal-Slab-Metal
     total charge in unit cell        =   0.0000
     grid points for fit at edges     =        4 


     >>>>> Grand-Canonical SCF is activated <<<<<
     Initial Total Charge  =     0.000000 e
     Target Fermi Energy   =    -4.251000 eV
     Thr. of Fermi Energy  =     0.010000 eV
     Wave-shift of Kerker  =     0.400000 bohr^-1
     Wave-shift of Hartree =     1.500000 bohr^-1
     Mixing Rate of Fermi  =     0.050000

     celldm(1)=  10.822273  celldm(2)=   0.000000  celldm(3)=   0.000000
     celldm(4)=   0.000000  celldm(5)=   0.000000  celldm(6)=   0.000000

     crystal axes: (cart. coord. in units of alat)
               a(1) = (   1.000000   0.000000   0.000000 )  
               a(2) = (   0.000000   1.000000   0.000000 )  
               a(3) = (   0.000000   0.000000   2.095374 )  

     reciprocal axes: (cart. coord. in units 2 pi/alat)
               b(1) = (  1.000000  0.000000  0.000000 )  
               b(2) = (  0.000000  1.000000  0.000000 )  
               b(3) = (  0.000000  0.000000  0.477242 )  


     PseudoPot. # 1 for Al read from file:
     /home1/gler/share/qe-6.1-rism/pseudo/Al.pbe-n-van.UPF
     MD5 check sum: b11ded24487aef5bc42d5c7a2e22a7b6
     Pseudo is Ultrasoft + core correction, Zval =  3.0
     Generated by new atomic code, or converted to UPF format
     Using radial grid of  893 points,  2 beta functions with: 
                l(1) =   0
                l(2) =   1
     Q(r) pseudized with  8 coefficients,  rinner =    0.900   0.900   0.900


     atomic species   valence    mass     pseudopotential
        Al             3.00    26.98154     Al( 1.00)

     16 Sym. Ops., with inversion, found



   Cartesian axes

     site n.     atom                  positions (alat units)
         1           Al  tau(   1) = (   0.0000000   0.0000000   0.0000000  )
         2           Al  tau(   2) = (   0.5000000   0.0000000   0.0000000  )
         3           Al  tau(   3) = (   0.0000000   0.5000000   0.0000000  )
         4           Al  tau(   4) = (   0.5000000   0.5000000   0.0000000  )

     number of k points=     6  Methfessel-Paxton smearing, width (Ry)=  0.0300
                       cart. coord. in units 2pi/alat
        k(    1) = (   0.0833333   0.0833333   0.0000000), wk =   0.2222222
        k(    2) = (   0.0833333   0.2500000   0.0000000), wk =   0.4444444
        k(    3) = (   0.0833333   0.4166667   0.0000000), wk =   0.4444444
        k(    4) = (   0.2500000   0.2500000   0.0000000), wk =   0.2222222
        k(    5) = (   0.2500000   0.4166667   0.0000000), wk =   0.4444444
        k(    6) = (   0.4166667   0.4166667   0.0000000), wk =   0.2222222

     Dense  grid:    32157 G-vectors     FFT dimensions: (  32,  32,  72)

     Estimated max dynamical RAM per process >       8.41MB

     Estimated total allocated dynamical RAM >      33.64MB

     Check: negative/imaginary core charge=   -0.000012    0.000000

     Initial potential from superposition of free atoms
     Check: negative starting charge=   -0.000169

     starting charge   11.99014, renormalised to   12.00000

     negative rho (up, down):  1.687E-04 0.000E+00
     Starting wfc are   16 randomized atomic wfcs

     total cpu time spent up to now is        0.5 secs

     per-process dynamical memory:     6.6 Mb

     Self-consistent Calculation

     iteration #  1     ecut=    20.00 Ry     beta=0.10
     RMM-DIIS diagonalization
     ethr =  1.00E-05,  avg # of iterations =  8.5

     negative rho (up, down):  8.396E-05 0.000E+00

     total cpu time spent up to now is        1.2 secs

     total energy              =     -49.54729276 Ry
     Harris-Foulkes estimate   =     -49.55301609 Ry
     estimated scf accuracy    <       0.02492247 Ry

     total charge of GC-SCF    =      -0.00343052 e
     the Fermi energy          =      -5.13579942 eV
                        (error :       0.88479942 eV)

     iteration #  2     ecut=    20.00 Ry     beta=0.10
     RMM-DIIS diagonalization
     ethr =  1.00E-05,  avg # of iterations =  2.5

     total cpu time spent up to now is        1.4 secs

     total energy              =     -49.50735833 Ry
     Harris-Foulkes estimate   =     -49.54648072 Ry
     estimated scf accuracy    <       0.02046694 Ry

     total charge of GC-SCF    =      -0.03550699 e
     the Fermi energy          =      -5.04348032 eV
                        (error :       0.79248032 eV)

     iteration #  3     ecut=    20.00 Ry     beta=0.10
     RMM-DIIS diagonalization
     ethr =  1.00E-05,  avg # of iterations =  5.7

     total cpu time spent up to now is        1.8 secs

     total energy              =     -49.51672329 Ry
     Harris-Foulkes estimate   =     -49.51637131 Ry
     estimated scf accuracy    <       0.00032074 Ry

     total charge of GC-SCF    =      -0.03122902 e
     the Fermi energy          =      -4.14717222 eV
                        (error :       0.10382778 eV)

     iteration #  4     ecut=    20.00 Ry     beta=0.10
     RMM-DIIS diagonalization
     ethr =  2.67E-06,  avg # of iterations =  3.0

     total cpu time spent up to now is        2.0 secs

     total energy              =     -49.51662463 Ry
     Harris-Foulkes estimate   =     -49.51676954 Ry
     estimated scf accuracy    <       0.00025355 Ry

     total charge of GC-SCF    =      -0.02955273 e
     the Fermi energy          =      -4.21582579 eV
                        (error :       0.03517421 eV)

     iteration #  5     ecut=    20.00 Ry     beta=0.10
     RMM-DIIS diagonalization
     ethr =  2.11E-06,  avg # of iterations =  3.9

     total cpu time spent up to now is        2.3 secs

     total energy              =     -49.51686181 Ry
     Harris-Foulkes estimate   =     -49.51686715 Ry
     estimated scf accuracy    <       0.00000936 Ry

     total charge of GC-SCF    =      -0.02943883 e
     the Fermi energy          =      -4.12054640 eV
                        (error :       0.13045360 eV)

     iteration #  6     ecut=    20.00 Ry     beta=0.10
     RMM-DIIS diagonalization
     ethr =  7.78E-08,  avg # of iterations =  6.0

     total cpu time spent up to now is        2.7 secs

     total energy              =     -49.51698992 Ry
     Harris-Foulkes estimate   =     -49.51687842 Ry
     estimated scf accuracy    <       0.00000961 Ry

     total charge of GC-SCF    =      -0.02152701 e
     the Fermi energy          =      -4.11485441 eV
                        (error :       0.13614559 eV)

     iteration #  7     ecut=    20.00 Ry     beta=0.10
     RMM-DIIS diagonalization
     ethr =  7.78E-08,  avg # of iterations =  3.5

     total cpu time spent up to now is        3.0 secs

     total energy              =     -49.51703827 Ry
     Harris-Foulkes estimate   =     -49.51703428 Ry
     estimated scf accuracy    <       0.00000310 Ry

     total charge of GC-SCF    =      -0.01989506 e
     the Fermi energy          =      -4.13263593 eV
                        (error :       0.11836407 eV)

     iteration #  8     ecut=    20.00 Ry     beta=0.10
     RMM-DIIS diagonalization
     ethr =  2.58E-08,  avg # of iterations =  3.6

     total cpu time spent up to now is        3.2 secs

     total energy              =     -49.51694717 Ry
     Harris-Foulkes estimate   =     -49.51704354 Ry
     estimated scf accuracy    <       0.00000356 Ry

     total charge of GC-SCF    =      -0.00962660 e
     the Fermi energy          =      -4.13811578 eV
                        (error :       0.11288422 eV)

     iteration #  9     ecut=    20.00 Ry     beta=0.10
     RMM-DIIS diagonalization
     ethr =  2.58E-08,  avg # of iterations =  3.3

     total cpu time spent up to now is        3.4 secs

     total energy              =     -49.51691766 Ry
     Harris-Foulkes estimate   =     -49.51694918 Ry
     estimated scf accuracy    <       0.00000114 Ry

     total charge of GC-SCF    =      -0.00844438 e
     the Fermi energy          =      -4.19428230 eV
                        (error :       0.05671770 eV)

     iteration # 10     ecut=    20.00 Ry     beta=0.10
     RMM-DIIS diagonalization
     ethr =  9.46E-09,  avg # of iterations =  3.6

     total cpu time spent up to now is        3.6 secs

     total energy              =     -49.51673008 Ry
     Harris-Foulkes estimate   =     -49.51691699 Ry
     estimated scf accuracy    <       0.00000072 Ry

     total charge of GC-SCF    =      -0.00135730 e
     the Fermi energy          =      -4.20181168 eV
                        (error :       0.04918832 eV)

     iteration # 11     ecut=    20.00 Ry     beta=0.10
     RMM-DIIS diagonalization
     ethr =  5.99E-09,  avg # of iterations =  3.9

     total cpu time spent up to now is        3.9 secs

     total energy              =     -49.51671502 Ry
     Harris-Foulkes estimate   =     -49.51673050 Ry
     estimated scf accuracy    <       0.00000009 Ry

     total charge of GC-SCF    =      -0.00088548 e
     the Fermi energy          =      -4.23995912 eV
                        (error :       0.01104088 eV)

     iteration # 12     ecut=    20.00 Ry     beta=0.10
     RMM-DIIS diagonalization
     ethr =  7.14E-10,  avg # of iterations =  6.4

     total cpu time spent up to now is        4.2 secs

     End of self-consistent calculation

          k = 0.0833 0.0833 0.0000 (  3999 PWs)   bands (ev):

   -11.3451  -7.7695  -7.7695  -6.0611  -6.0611  -5.3048  -4.2838  -3.4109
    -2.1175  -2.0693

          k = 0.0833 0.2500 0.0000 (  4011 PWs)   bands (ev):

   -11.0969  -8.9021  -7.5254  -5.8334  -5.3827  -5.0672  -4.4896  -3.9295
    -2.9997  -1.8384

          k = 0.0833 0.4167 0.0000 (  4016 PWs)   bands (ev):

   -10.6027  -9.8672  -7.0397  -6.3199  -5.3819  -4.7260  -4.5946  -3.8957
    -2.6548  -1.3803

          k = 0.2500 0.2500 0.0000 (  4007 PWs)   bands (ev):

   -10.8492  -8.6578  -8.6578  -6.5032  -4.8298  -4.2676  -4.2676  -2.9543
    -2.7657  -2.7657

          k = 0.2500 0.4167 0.0000 (  4019 PWs)   bands (ev):

   -10.3556  -9.6212  -8.1714  -7.4492  -4.3580  -3.8375  -3.6601  -3.2551
    -2.4551  -2.3000

          k = 0.4167 0.4167 0.0000 (  4005 PWs)   bands (ev):

    -9.8635  -9.1317  -9.1317  -8.4037  -3.8870  -3.1910  -3.1910  -2.4977
    -2.1071  -2.0431

     the Fermi energy is    -4.2442 ev

!    total energy              =     -49.51666965 Ry
     Harris-Foulkes estimate   =     -49.51671502 Ry
     estimated scf accuracy    <       0.00000023 Ry

     total charge of GC-SCF    =       0.00038945 e

     The total energy is the sum of the following terms:

     one-electron contribution =    -144.99177185 Ry
     hartree contribution      =      73.05432079 Ry
     xc contribution           =     -39.22080056 Ry
     ewald contribution        =      61.64193118 Ry
     smearing contrib. (-TS)   =      -0.00022753 Ry
     pot.stat. contrib. (-muN) =      -0.00012168 Ry

     convergence has been achieved in  12 iterations

     Forces acting on atoms (cartesian axes, Ry/au):

     atom    1 type  1   force =     0.00000000    0.00000000    0.00000000
     atom    2 type  1   force =     0.00000000    0.00000000    0.00000000
     atom    3 type  1   force =     0.00000000    0.00000000    0.00000000
     atom    4 type  1   force =     0.00000000    0.00000000    0.00000000

     Total force =     0.000000     Total SCF correction =     0.000000

     Writing output data file Al001_bc2_GCSCF_v00.save

     init_run     :      0.49s CPU      0.50s WALL (       1 calls)
     electrons    :      3.69s CPU      3.73s WALL (       1 calls)
     forces       :      0.19s CPU      0.19s WALL (       1 calls)

     Called by init_run:
     wfcinit      :      0.10s CPU      0.11s WALL (       1 calls)
     potinit      :      0.09s CPU      0.09s WALL (       1 calls)

     Called by electrons:
     c_bands      :      2.80s CPU      2.83s WALL (      12 calls)
     sum_band     :      0.46s CPU      0.46s WALL (      12 calls)
     v_of_rho     :      0.32s CPU      0.32s WALL (      13 calls)
     newd         :      0.09s CPU      0.09s WALL (      13 calls)
     mix_rho      :      0.04s CPU      0.04s WALL (      12 calls)

     Called by c_bands:
     init_us_2    :      0.06s CPU      0.06s WALL (     156 calls)
     crmmdiagg    :      1.88s CPU      1.90s WALL (     100 calls)
     wfcrot       :      0.93s CPU      0.94s WALL (     100 calls)
     gsorth       :      0.04s CPU      0.04s WALL (      72 calls)

     Called by sum_band:
     sum_band:bec :      0.00s CPU      0.00s WALL (      72 calls)
     addusdens    :      0.08s CPU      0.09s WALL (      12 calls)

     Called by *rmmdiagg:
     h_psi        :      2.40s CPU      2.42s WALL (     384 calls)
     s_psi        :      0.06s CPU      0.06s WALL (     384 calls)
     cdiaghg      :      0.01s CPU      0.01s WALL (     100 calls)

     Called by h_psi:
     h_psi:pot    :      2.38s CPU      2.40s WALL (     384 calls)
     h_psi:calbec :      0.08s CPU      0.08s WALL (     384 calls)
     vloc_psi     :      2.24s CPU      2.26s WALL (     384 calls)
     add_vuspsi   :      0.06s CPU      0.06s WALL (     384 calls)

     General routines
     calbec       :      0.10s CPU      0.10s WALL (     480 calls)
     fft          :      0.12s CPU      0.12s WALL (     179 calls)
     fftw         :      2.28s CPU      2.28s WALL (    6772 calls)
     davcio       :      0.00s CPU      0.00s WALL (       6 calls)

     Parallel routines
     fft_scatter  :      0.53s CPU      0.57s WALL (    6951 calls)

     PWSCF        :     4.46s CPU         4.59s WALL


   This run was terminated on:  17:28:53  11Jan2021            

=------------------------------------------------------------------------------=
   JOB DONE.
=------------------------------------------------------------------------------=
