
     Program PWSCF v.6.1 starts on 11Jan2021 at 17:27:28 

     This program is part of the open-source Quantum ESPRESSO suite
     for quantum simulation of materials; please cite
         "P. Giannozzi et al., J. Phys.:Condens. Matter 21 395502 (2009);
          URL http://www.quantum-espresso.org", 
     in publications or presentations arising from this work. More details at
     http://www.quantum-espresso.org/quote

     Parallel version (MPI), running on     4 processors
     R & G space division:  proc/nbgrp/npool/nimage =       4
     Waiting for input...
     Reading input from standard input

     Current dimensions of program PWSCF are:
     Max number of different atomic species (ntypx) = 10
     Max number of k-points (npk) =  40000
     Max angular momentum in pseudopotentials (lmaxx) =  3

     Subspace diagonalization in iterative solution of the eigenvalue problem:
     a serial algorithm will be used

     Found symmetry operation: I + ( -0.5000  0.0000  0.0000)
     This is a supercell, fractional translations are disabled

     Parallelization info
     --------------------
     sticks:   dense  smooth     PW     G-vecs:    dense   smooth      PW
     Min         187     187     54                 8037     8037    1261
     Max         188     188     56                 8044     8044    1262
     Sum         749     749    221                32157    32157    5047



     bravais-lattice index     =            0
     lattice parameter (alat)  =      10.8223  a.u.
     unit-cell volume          =    2655.9321 (a.u.)^3
     number of atoms/cell      =            4
     number of atomic types    =            1
     number of electrons       =        12.02
     number of Kohn-Sham states=           10
     kinetic-energy cutoff     =      20.0000  Ry
     charge density cutoff     =      80.0000  Ry
     convergence threshold     =      1.0E-06
     mixing beta               =       0.1000
     number of iterations used =            8  plain     mixing
     Exchange-correlation      =  SLA  PW   PBE  PBE ( 1  4  3  4 0 0)

     Effective Screening Medium Method
     =================================
     Boundary Conditions: Vacuum-Slab-Metal
     total charge in unit cell        =  -0.0200
     grid points for fit at edges     =        4 


     celldm(1)=  10.822273  celldm(2)=   0.000000  celldm(3)=   0.000000
     celldm(4)=   0.000000  celldm(5)=   0.000000  celldm(6)=   0.000000

     crystal axes: (cart. coord. in units of alat)
               a(1) = (   1.000000   0.000000   0.000000 )  
               a(2) = (   0.000000   1.000000   0.000000 )  
               a(3) = (   0.000000   0.000000   2.095374 )  

     reciprocal axes: (cart. coord. in units 2 pi/alat)
               b(1) = (  1.000000  0.000000  0.000000 )  
               b(2) = (  0.000000  1.000000  0.000000 )  
               b(3) = (  0.000000  0.000000  0.477242 )  


     PseudoPot. # 1 for Al read from file:
     /home1/gler/share/qe-6.1-rism/pseudo/Al.pbe-n-van.UPF
     MD5 check sum: b11ded24487aef5bc42d5c7a2e22a7b6
     Pseudo is Ultrasoft + core correction, Zval =  3.0
     Generated by new atomic code, or converted to UPF format
     Using radial grid of  893 points,  2 beta functions with: 
                l(1) =   0
                l(2) =   1
     Q(r) pseudized with  8 coefficients,  rinner =    0.900   0.900   0.900


     atomic species   valence    mass     pseudopotential
        Al             3.00    26.98154     Al( 1.00)

      8 Sym. Ops. (no inversion) found



   Cartesian axes

     site n.     atom                  positions (alat units)
         1           Al  tau(   1) = (   0.0000000   0.0000000   0.0000000  )
         2           Al  tau(   2) = (   0.5000000   0.0000000   0.0000000  )
         3           Al  tau(   3) = (   0.0000000   0.5000000   0.0000000  )
         4           Al  tau(   4) = (   0.5000000   0.5000000   0.0000000  )

     number of k points=     6  Methfessel-Paxton smearing, width (Ry)=  0.0300
                       cart. coord. in units 2pi/alat
        k(    1) = (   0.0833333   0.0833333   0.0000000), wk =   0.2222222
        k(    2) = (   0.0833333   0.2500000   0.0000000), wk =   0.4444444
        k(    3) = (   0.0833333   0.4166667   0.0000000), wk =   0.4444444
        k(    4) = (   0.2500000   0.2500000   0.0000000), wk =   0.2222222
        k(    5) = (   0.2500000   0.4166667   0.0000000), wk =   0.4444444
        k(    6) = (   0.4166667   0.4166667   0.0000000), wk =   0.2222222

     Dense  grid:    32157 G-vectors     FFT dimensions: (  32,  32,  72)

     Estimated max dynamical RAM per process >       8.41MB

     Estimated total allocated dynamical RAM >      33.64MB

     Check: negative/imaginary core charge=   -0.000012    0.000000

     Initial potential from superposition of free atoms
     Check: negative starting charge=   -0.000169

     starting charge   11.99014, renormalised to   12.02000

     negative rho (up, down):  1.689E-04 0.000E+00
     Starting wfc are   16 randomized atomic wfcs

     total cpu time spent up to now is        0.5 secs

     per-process dynamical memory:     6.6 Mb

     Self-consistent Calculation

     iteration #  1     ecut=    20.00 Ry     beta=0.10
     RMM-DIIS diagonalization
     ethr =  1.00E-02,  avg # of iterations =  2.2

     Threshold (ethr) on eigenvalues was too large:
     Diagonalizing with lowered threshold

     RMM-DIIS diagonalization
     ethr =  5.03E-04,  avg # of iterations =  2.1

     negative rho (up, down):  1.412E-04 0.000E+00

     total cpu time spent up to now is        1.0 secs

     total energy              =     -49.53723295 Ry
     Harris-Foulkes estimate   =     -49.54411619 Ry
     estimated scf accuracy    <       0.07474488 Ry

     iteration #  2     ecut=    20.00 Ry     beta=0.10
     RMM-DIIS diagonalization
     ethr =  6.22E-04,  avg # of iterations =  2.5

     negative rho (up, down):  1.836E-05 0.000E+00

     total cpu time spent up to now is        1.2 secs

     total energy              =     -49.51517326 Ry
     Harris-Foulkes estimate   =     -49.53866787 Ry
     estimated scf accuracy    <       0.05526139 Ry

     iteration #  3     ecut=    20.00 Ry     beta=0.10
     RMM-DIIS diagonalization
     ethr =  4.60E-04,  avg # of iterations =  2.6

     negative rho (up, down):  1.857E-05 0.000E+00

     total cpu time spent up to now is        1.4 secs

     total energy              =     -49.52174945 Ry
     Harris-Foulkes estimate   =     -49.52282069 Ry
     estimated scf accuracy    <       0.00318734 Ry

     iteration #  4     ecut=    20.00 Ry     beta=0.10
     RMM-DIIS diagonalization
     ethr =  2.65E-05,  avg # of iterations =  3.3

     negative rho (up, down):  7.308E-06 0.000E+00

     total cpu time spent up to now is        1.7 secs

     total energy              =     -49.52253276 Ry
     Harris-Foulkes estimate   =     -49.52307272 Ry
     estimated scf accuracy    <       0.00235329 Ry

     iteration #  5     ecut=    20.00 Ry     beta=0.10
     RMM-DIIS diagonalization
     ethr =  1.96E-05,  avg # of iterations =  2.5

     negative rho (up, down):  2.852E-07 0.000E+00

     total cpu time spent up to now is        1.9 secs

     total energy              =     -49.52233644 Ry
     Harris-Foulkes estimate   =     -49.52266723 Ry
     estimated scf accuracy    <       0.00076487 Ry

     iteration #  6     ecut=    20.00 Ry     beta=0.10
     RMM-DIIS diagonalization
     ethr =  6.36E-06,  avg # of iterations =  3.3

     negative rho (up, down):  7.669E-08 0.000E+00

     total cpu time spent up to now is        2.1 secs

     total energy              =     -49.52245444 Ry
     Harris-Foulkes estimate   =     -49.52275705 Ry
     estimated scf accuracy    <       0.00075981 Ry

     iteration #  7     ecut=    20.00 Ry     beta=0.10
     RMM-DIIS diagonalization
     ethr =  6.32E-06,  avg # of iterations =  2.6

     negative rho (up, down):  1.030E-08 0.000E+00

     total cpu time spent up to now is        2.4 secs

     total energy              =     -49.52251252 Ry
     Harris-Foulkes estimate   =     -49.52254694 Ry
     estimated scf accuracy    <       0.00006020 Ry

     iteration #  8     ecut=    20.00 Ry     beta=0.10
     RMM-DIIS diagonalization
     ethr =  5.01E-07,  avg # of iterations =  3.5

     total cpu time spent up to now is        2.6 secs

     total energy              =     -49.52256446 Ry
     Harris-Foulkes estimate   =     -49.52256382 Ry
     estimated scf accuracy    <       0.00004760 Ry

     iteration #  9     ecut=    20.00 Ry     beta=0.10
     RMM-DIIS diagonalization
     ethr =  3.96E-07,  avg # of iterations =  2.5

     total cpu time spent up to now is        2.8 secs

     total energy              =     -49.52256003 Ry
     Harris-Foulkes estimate   =     -49.52256761 Ry
     estimated scf accuracy    <       0.00003688 Ry

     iteration # 10     ecut=    20.00 Ry     beta=0.10
     RMM-DIIS diagonalization
     ethr =  3.07E-07,  avg # of iterations =  2.6

     total cpu time spent up to now is        3.0 secs

     total energy              =     -49.52256422 Ry
     Harris-Foulkes estimate   =     -49.52256373 Ry
     estimated scf accuracy    <       0.00000401 Ry

     iteration # 11     ecut=    20.00 Ry     beta=0.10
     RMM-DIIS diagonalization
     ethr =  3.34E-08,  avg # of iterations =  2.8

     total cpu time spent up to now is        3.2 secs

     total energy              =     -49.52256428 Ry
     Harris-Foulkes estimate   =     -49.52256486 Ry
     estimated scf accuracy    <       0.00000152 Ry

     iteration # 12     ecut=    20.00 Ry     beta=0.10
     RMM-DIIS diagonalization
     ethr =  1.26E-08,  avg # of iterations =  2.5

     total cpu time spent up to now is        3.3 secs

     End of self-consistent calculation

          k = 0.0833 0.0833 0.0000 (  3999 PWs)   bands (ev):

   -10.8947  -7.3191  -7.3191  -5.6104  -5.6104  -4.8687  -3.8330  -2.9596
    -1.6677  -1.6306

          k = 0.0833 0.2500 0.0000 (  4011 PWs)   bands (ev):

   -10.6465  -8.4517  -7.0749  -5.3827  -4.9322  -4.6309  -4.0389  -3.4785
    -2.5623  -1.3997

          k = 0.0833 0.4167 0.0000 (  4016 PWs)   bands (ev):

   -10.1523  -9.4168  -6.5892  -5.8694  -4.9312  -4.2751  -4.1582  -3.4590
    -2.2040  -0.9413

          k = 0.2500 0.2500 0.0000 (  4007 PWs)   bands (ev):

   -10.3988  -8.2073  -8.2073  -6.0526  -4.3934  -3.8168  -3.8168  -2.5029
    -2.3282  -2.3282

          k = 0.2500 0.4167 0.0000 (  4019 PWs)   bands (ev):

    -9.9051  -9.1708  -7.7209  -6.9987  -3.9215  -3.3867  -3.2232  -2.8040
    -2.0043  -1.8623

          k = 0.4167 0.4167 0.0000 (  4005 PWs)   bands (ev):

    -9.4131  -8.6813  -8.6813  -7.9533  -3.4503  -2.7540  -2.7540  -2.0601
    -1.6561  -1.5916

     the Fermi energy is    -3.7927 ev

!    total energy              =     -49.52256269 Ry
     Harris-Foulkes estimate   =     -49.52256438 Ry
     estimated scf accuracy    <       0.00000075 Ry

     The total energy is the sum of the following terms:

     one-electron contribution =    -320.56807623 Ry
     hartree contribution      =     161.04151736 Ry
     xc contribution           =     -39.22794058 Ry
     ewald contribution        =     149.23211567 Ry
     smearing contrib. (-TS)   =      -0.00017890 Ry

     convergence has been achieved in  12 iterations

     Forces acting on atoms (cartesian axes, Ry/au):

     atom    1 type  1   force =     0.00000000    0.00000000    0.00006125
     atom    2 type  1   force =     0.00000000    0.00000000    0.00006108
     atom    3 type  1   force =     0.00000000    0.00000000    0.00006108
     atom    4 type  1   force =     0.00000000    0.00000000    0.00006111

     Total force =     0.000122     Total SCF correction =     0.001346
     SCF correction compared to forces is large: reduce conv_thr to get better values

     Writing output data file Al001_bc3_m002.save

     init_run     :      0.48s CPU      0.49s WALL (       1 calls)
     electrons    :      2.77s CPU      2.82s WALL (       1 calls)
     forces       :      0.18s CPU      0.19s WALL (       1 calls)

     Called by init_run:
     wfcinit      :      0.10s CPU      0.11s WALL (       1 calls)
     potinit      :      0.08s CPU      0.09s WALL (       1 calls)

     Called by electrons:
     c_bands      :      1.84s CPU      1.86s WALL (      13 calls)
     sum_band     :      0.50s CPU      0.51s WALL (      13 calls)
     v_of_rho     :      0.32s CPU      0.33s WALL (      13 calls)
     newd         :      0.09s CPU      0.09s WALL (      13 calls)
     mix_rho      :      0.04s CPU      0.04s WALL (      13 calls)

     Called by c_bands:
     init_us_2    :      0.07s CPU      0.06s WALL (     168 calls)
     crmmdiagg    :      1.14s CPU      1.15s WALL (      78 calls)
     wfcrot       :      0.70s CPU      0.71s WALL (      72 calls)
     gsorth       :      0.04s CPU      0.05s WALL (      78 calls)

     Called by sum_band:
     sum_band:bec :      0.00s CPU      0.00s WALL (      78 calls)
     addusdens    :      0.09s CPU      0.10s WALL (      13 calls)

     Called by *rmmdiagg:
     h_psi        :      1.58s CPU      1.60s WALL (     239 calls)
     s_psi        :      0.05s CPU      0.04s WALL (     239 calls)
     cdiaghg      :      0.01s CPU      0.01s WALL (      72 calls)

     Called by h_psi:
     h_psi:pot    :      1.57s CPU      1.59s WALL (     239 calls)
     h_psi:calbec :      0.04s CPU      0.05s WALL (     239 calls)
     vloc_psi     :      1.48s CPU      1.50s WALL (     239 calls)
     add_vuspsi   :      0.04s CPU      0.04s WALL (     239 calls)

     General routines
     calbec       :      0.06s CPU      0.07s WALL (     341 calls)
     fft          :      0.11s CPU      0.12s WALL (     182 calls)
     fftw         :      1.60s CPU      1.62s WALL (    4636 calls)
     davcio       :      0.00s CPU      0.00s WALL (       6 calls)

     Parallel routines
     fft_scatter  :      0.38s CPU      0.43s WALL (    4818 calls)

     PWSCF        :     3.52s CPU         3.66s WALL


   This run was terminated on:  17:27:31  11Jan2021            

=------------------------------------------------------------------------------=
   JOB DONE.
=------------------------------------------------------------------------------=
