
     Program PWSCF v.6.1 starts on 11Jan2021 at 17:28:32 

     This program is part of the open-source Quantum ESPRESSO suite
     for quantum simulation of materials; please cite
         "P. Giannozzi et al., J. Phys.:Condens. Matter 21 395502 (2009);
          URL http://www.quantum-espresso.org", 
     in publications or presentations arising from this work. More details at
     http://www.quantum-espresso.org/quote

     Parallel version (MPI), running on     4 processors
     R & G space division:  proc/nbgrp/npool/nimage =       4
     Waiting for input...
     Reading input from standard input

     Current dimensions of program PWSCF are:
     Max number of different atomic species (ntypx) = 10
     Max number of k-points (npk) =  40000
     Max angular momentum in pseudopotentials (lmaxx) =  3

     Subspace diagonalization in iterative solution of the eigenvalue problem:
     a serial algorithm will be used

     Found symmetry operation: I + ( -0.5000  0.0000  0.0000)
     This is a supercell, fractional translations are disabled

     Parallelization info
     --------------------
     sticks:   dense  smooth     PW     G-vecs:    dense   smooth      PW
     Min         187     187     54                 8037     8037    1261
     Max         188     188     56                 8044     8044    1262
     Sum         749     749    221                32157    32157    5047



     bravais-lattice index     =            0
     lattice parameter (alat)  =      10.8223  a.u.
     unit-cell volume          =    2655.9321 (a.u.)^3
     number of atoms/cell      =            4
     number of atomic types    =            1
     number of electrons       =        12.00
     number of Kohn-Sham states=           10
     kinetic-energy cutoff     =      20.0000  Ry
     charge density cutoff     =      80.0000  Ry
     convergence threshold     =      1.0E-06
     mixing beta               =       0.1000
     number of iterations used =            8  plain     mixing
     Exchange-correlation      =  SLA  PW   PBE  PBE ( 1  4  3  4 0 0)
     nstep                     =           50


     Effective Screening Medium Method
     =================================
     Boundary Conditions: Vacuum-Slab-Metal
     total charge in unit cell        =   0.0000
     grid points for fit at edges     =        4 


     >>>> FCP Relaxation is activated <<<<<
     Initial Total Charge =     0.000000 e
     Target Fermi Energy  =    -0.349045 Ry
                          =    -4.749000 eV

     celldm(1)=  10.822273  celldm(2)=   0.000000  celldm(3)=   0.000000
     celldm(4)=   0.000000  celldm(5)=   0.000000  celldm(6)=   0.000000

     crystal axes: (cart. coord. in units of alat)
               a(1) = (   1.000000   0.000000   0.000000 )  
               a(2) = (   0.000000   1.000000   0.000000 )  
               a(3) = (   0.000000   0.000000   2.095374 )  

     reciprocal axes: (cart. coord. in units 2 pi/alat)
               b(1) = (  1.000000  0.000000  0.000000 )  
               b(2) = (  0.000000  1.000000  0.000000 )  
               b(3) = (  0.000000  0.000000  0.477242 )  


     PseudoPot. # 1 for Al read from file:
     /home1/gler/share/qe-6.1-rism/pseudo/Al.pbe-n-van.UPF
     MD5 check sum: b11ded24487aef5bc42d5c7a2e22a7b6
     Pseudo is Ultrasoft + core correction, Zval =  3.0
     Generated by new atomic code, or converted to UPF format
     Using radial grid of  893 points,  2 beta functions with: 
                l(1) =   0
                l(2) =   1
     Q(r) pseudized with  8 coefficients,  rinner =    0.900   0.900   0.900


     atomic species   valence    mass     pseudopotential
        Al             3.00    26.98154     Al( 1.00)

      8 Sym. Ops. (no inversion) found



   Cartesian axes

     site n.     atom                  positions (alat units)
         1           Al  tau(   1) = (   0.0000000   0.0000000   0.0000000  )
         2           Al  tau(   2) = (   0.5000000   0.0000000   0.0000000  )
         3           Al  tau(   3) = (   0.0000000   0.5000000   0.0000000  )
         4           Al  tau(   4) = (   0.5000000   0.5000000   0.0000000  )

     number of k points=     6  Methfessel-Paxton smearing, width (Ry)=  0.0300
                       cart. coord. in units 2pi/alat
        k(    1) = (   0.0833333   0.0833333   0.0000000), wk =   0.2222222
        k(    2) = (   0.0833333   0.2500000   0.0000000), wk =   0.4444444
        k(    3) = (   0.0833333   0.4166667   0.0000000), wk =   0.4444444
        k(    4) = (   0.2500000   0.2500000   0.0000000), wk =   0.2222222
        k(    5) = (   0.2500000   0.4166667   0.0000000), wk =   0.4444444
        k(    6) = (   0.4166667   0.4166667   0.0000000), wk =   0.2222222

     Dense  grid:    32157 G-vectors     FFT dimensions: (  32,  32,  72)

     Estimated max dynamical RAM per process >       8.41MB

     Estimated total allocated dynamical RAM >      33.64MB

     Check: negative/imaginary core charge=   -0.000012    0.000000

     Initial potential from superposition of free atoms
     Check: negative starting charge=   -0.000169

     starting charge   11.99014, renormalised to   12.00000

     negative rho (up, down):  1.687E-04 0.000E+00
     Starting wfc are   16 randomized atomic wfcs

     total cpu time spent up to now is        0.5 secs

     per-process dynamical memory:     6.6 Mb

     Self-consistent Calculation

     iteration #  1     ecut=    20.00 Ry     beta=0.10
     RMM-DIIS diagonalization
     ethr =  1.00E-02,  avg # of iterations =  2.3

     Threshold (ethr) on eigenvalues was too large:
     Diagonalizing with lowered threshold

     RMM-DIIS diagonalization
     ethr =  5.22E-04,  avg # of iterations =  2.1

     negative rho (up, down):  1.411E-04 0.000E+00

     total cpu time spent up to now is        1.0 secs

     total energy              =     -49.53186380 Ry
     Harris-Foulkes estimate   =     -49.53893343 Ry
     estimated scf accuracy    <       0.07723192 Ry

     iteration #  2     ecut=    20.00 Ry     beta=0.10
     RMM-DIIS diagonalization
     ethr =  6.44E-04,  avg # of iterations =  2.5

     negative rho (up, down):  1.512E-05 0.000E+00

     total cpu time spent up to now is        1.2 secs

     total energy              =     -49.50857940 Ry
     Harris-Foulkes estimate   =     -49.53337147 Ry
     estimated scf accuracy    <       0.05719887 Ry

     iteration #  3     ecut=    20.00 Ry     beta=0.10
     RMM-DIIS diagonalization
     ethr =  4.77E-04,  avg # of iterations =  2.5

     negative rho (up, down):  1.790E-05 0.000E+00

     total cpu time spent up to now is        1.4 secs

     total energy              =     -49.51605672 Ry
     Harris-Foulkes estimate   =     -49.51656182 Ry
     estimated scf accuracy    <       0.00219497 Ry

     iteration #  4     ecut=    20.00 Ry     beta=0.10
     RMM-DIIS diagonalization
     ethr =  1.83E-05,  avg # of iterations =  3.5

     negative rho (up, down):  1.798E-07 0.000E+00

     total cpu time spent up to now is        1.7 secs

     total energy              =     -49.51642067 Ry
     Harris-Foulkes estimate   =     -49.51700154 Ry
     estimated scf accuracy    <       0.00177638 Ry

     iteration #  5     ecut=    20.00 Ry     beta=0.10
     RMM-DIIS diagonalization
     ethr =  1.48E-05,  avg # of iterations =  2.6

     negative rho (up, down):  2.132E-08 0.000E+00

     total cpu time spent up to now is        1.9 secs

     total energy              =     -49.51658925 Ry
     Harris-Foulkes estimate   =     -49.51658217 Ry
     estimated scf accuracy    <       0.00002079 Ry

     iteration #  6     ecut=    20.00 Ry     beta=0.10
     RMM-DIIS diagonalization
     ethr =  1.73E-07,  avg # of iterations =  4.3

     total cpu time spent up to now is        2.2 secs

     total energy              =     -49.51662598 Ry
     Harris-Foulkes estimate   =     -49.51661782 Ry
     estimated scf accuracy    <       0.00002244 Ry

     iteration #  7     ecut=    20.00 Ry     beta=0.10
     RMM-DIIS diagonalization
     ethr =  1.73E-07,  avg # of iterations =  2.5

     total cpu time spent up to now is        2.4 secs

     total energy              =     -49.51663120 Ry
     Harris-Foulkes estimate   =     -49.51662629 Ry
     estimated scf accuracy    <       0.00001078 Ry

     iteration #  8     ecut=    20.00 Ry     beta=0.10
     RMM-DIIS diagonalization
     ethr =  8.98E-08,  avg # of iterations =  2.5

     total cpu time spent up to now is        2.6 secs

     End of self-consistent calculation

          k = 0.0833 0.0833 0.0000 (  3999 PWs)   bands (ev):

   -11.3516  -7.7761  -7.7760  -6.0675  -6.0675  -5.3119  -4.2903  -3.4173
    -2.1242  -2.0766

          k = 0.0833 0.2500 0.0000 (  4011 PWs)   bands (ev):

   -11.1034  -8.9086  -7.5319  -5.8398  -5.3893  -5.0743  -4.4960  -3.9359
    -3.0069  -1.8457

          k = 0.0833 0.4167 0.0000 (  4016 PWs)   bands (ev):

   -10.6092  -9.8737  -7.0462  -6.3265  -5.3883  -4.7324  -4.6018  -3.9029
    -2.6612  -1.3875

          k = 0.2500 0.2500 0.0000 (  4007 PWs)   bands (ev):

   -10.8556  -8.6643  -8.6643  -6.5097  -4.8369  -4.2740  -4.2740  -2.9607
    -2.7729  -2.7729

          k = 0.2500 0.4167 0.0000 (  4019 PWs)   bands (ev):

   -10.3620  -9.6277  -8.1779  -7.4557  -4.3651  -3.8440  -3.6672  -3.2615
    -2.4616  -2.3071

          k = 0.4167 0.4167 0.0000 (  4005 PWs)   bands (ev):

    -9.8700  -9.1382  -9.1382  -8.4102  -3.8942  -3.1982  -3.1982  -2.5045
    -2.1135  -2.0495

     the Fermi energy is    -4.2507 ev

!    total energy              =     -49.51663135 Ry
     Harris-Foulkes estimate   =     -49.51663211 Ry
     estimated scf accuracy    <       0.00000008 Ry

     The total energy is the sum of the following terms:

     one-electron contribution =    -320.17557897 Ry
     hartree contribution      =     160.64798632 Ry
     xc contribution           =     -39.22092844 Ry
     ewald contribution        =     149.23211567 Ry
     smearing contrib. (-TS)   =      -0.00022593 Ry
     pot.stat. contrib. (-muN) =      -0.00000000 Ry

     convergence has been achieved in   8 iterations

     BFGS Geometry Optimization

     number of scf cycles    =   1
     number of bfgs steps    =   0

     grand-energy   new      =     -49.5166313485 Ry

     new trust radius        =       0.1831056508 bohr
     new conv_thr            =       0.0000010000 Ry


ATOMIC_POSITIONS (angstrom)
Al       0.000000000   0.000000000   0.000000000
Al       2.863450038   0.000000000   0.000000000
Al       0.000000000   2.863450038   0.000000000
Al       2.863450038   2.863450038   0.000000000


     FCP: Total Charge =     0.000000  ->     0.015051
     FCP: Fermi Energy =    -0.312424 Ry (   -4.250744 eV)
     FCP: Target Level =    -0.349045 Ry (   -4.749000 eV)
     FCP: Force on FCP =    -0.036621 Ry (   -0.498256 eV)
     FCP: Force Thr.   =     0.000735 Ry (    0.010000 eV)



     Writing output data file Al001_bc3_FCP_vm05.save
     Check: negative starting charge=   -0.000169
     NEW-OLD atomic charge density approx. for the potential

     Check: negative/imaginary core charge=   -0.000012    0.000000
     Check: negative starting charge=   -0.000169
     extrapolated charge   12.00000, renormalised to   11.98495

     total cpu time spent up to now is        2.9 secs

     per-process dynamical memory:    10.4 Mb

     Self-consistent Calculation

     iteration #  1     ecut=    20.00 Ry     beta=0.10
     RMM-DIIS diagonalization
     ethr =  1.00E-06,  avg # of iterations =  1.5

     Threshold (ethr) on eigenvalues was too large:
     Diagonalizing with lowered threshold

     RMM-DIIS diagonalization
     ethr =  1.32E-09,  avg # of iterations =  2.4

     total cpu time spent up to now is        3.3 secs

     End of self-consistent calculation

          k = 0.0833 0.0833 0.0000 (  3999 PWs)   bands (ev):

   -11.3501  -7.7746  -7.7745  -6.0661  -6.0661  -5.3106  -4.2888  -3.4158
    -2.1226  -2.0752

          k = 0.0833 0.2500 0.0000 (  4011 PWs)   bands (ev):

   -11.1019  -8.9071  -7.5304  -5.8383  -5.3877  -5.0729  -4.4946  -3.9344
    -3.0055  -1.8443

          k = 0.0833 0.4167 0.0000 (  4016 PWs)   bands (ev):

   -10.6077  -9.8722  -7.0447  -6.3249  -5.3869  -4.7309  -4.6004  -3.9015
    -2.6597  -1.3861

          k = 0.2500 0.2500 0.0000 (  4007 PWs)   bands (ev):

   -10.8542  -8.6628  -8.6628  -6.5082  -4.8355  -4.2725  -4.2725  -2.9592
    -2.7715  -2.7715

          k = 0.2500 0.4167 0.0000 (  4019 PWs)   bands (ev):

   -10.3606  -9.6262  -8.1764  -7.4542  -4.3638  -3.8425  -3.6659  -3.2600
    -2.4601  -2.3058

          k = 0.4167 0.4167 0.0000 (  4005 PWs)   bands (ev):

    -9.8685  -9.1367  -9.1367  -8.4087  -3.8928  -3.1968  -3.1968  -2.5032
    -2.1121  -2.0480

     the Fermi energy is    -4.2535 ev

!    total energy              =     -49.51693350 Ry
     Harris-Foulkes estimate   =     -49.12375319 Ry
     estimated scf accuracy    <       0.00000022 Ry

     The total energy is the sum of the following terms:

     one-electron contribution =    -319.77921268 Ry
     hartree contribution      =     160.24735632 Ry
     xc contribution           =     -39.21168663 Ry
     ewald contribution        =     149.23211567 Ry
     smearing contrib. (-TS)   =      -0.00025254 Ry
     pot.stat. contrib. (-muN) =      -0.00525364 Ry

     convergence has been achieved in   1 iterations

     number of scf cycles    =   2
     number of bfgs steps    =   1

     grand-energy   old      =     -49.5166313485 Ry
     grand-energy   new      =     -49.5169335043 Ry


     WARNING: bfgs curvature condition failed, Theta= 0.805
     new trust radius        =       0.2014162158 bohr
     new conv_thr            =       0.0000000100 Ry


ATOMIC_POSITIONS (angstrom)
Al       0.000000000   0.000000000   0.000000000
Al       2.863450038   0.000000000   0.000000000
Al       0.000000000   2.863450038   0.000000000
Al       2.863450038   2.863450038   0.000000000


     FCP: Total Charge =     0.015051  ->     0.031608
     FCP: Fermi Energy =    -0.312630 Ry (   -4.253546 eV)
     FCP: Target Level =    -0.349045 Ry (   -4.749000 eV)
     FCP: Force on FCP =    -0.036415 Ry (   -0.495454 eV)
     FCP: Force Thr.   =     0.000735 Ry (    0.010000 eV)



     Writing output data file Al001_bc3_FCP_vm05.save
     Check: negative starting charge=   -0.000169
     NEW-OLD atomic charge density approx. for the potential

     Check: negative/imaginary core charge=   -0.000012    0.000000
     Check: negative starting charge=   -0.000169
     extrapolated charge   11.98495, renormalised to   11.96839

     total cpu time spent up to now is        3.6 secs

     per-process dynamical memory:    10.4 Mb

     Self-consistent Calculation

     iteration #  1     ecut=    20.00 Ry     beta=0.10
     RMM-DIIS diagonalization
     ethr =  1.00E-06,  avg # of iterations =  3.4

     total cpu time spent up to now is        3.9 secs

     total energy              =     -49.51720590 Ry
     Harris-Foulkes estimate   =     -49.08496792 Ry
     estimated scf accuracy    <       0.00049915 Ry

     iteration #  2     ecut=    20.00 Ry     beta=0.10
     RMM-DIIS diagonalization
     ethr =  4.17E-06,  avg # of iterations =  3.1

     total cpu time spent up to now is        4.1 secs

     total energy              =     -49.51790062 Ry
     Harris-Foulkes estimate   =     -49.51734681 Ry
     estimated scf accuracy    <       0.00140000 Ry

     iteration #  3     ecut=    20.00 Ry     beta=0.10
     RMM-DIIS diagonalization
     ethr =  4.17E-06,  avg # of iterations =  3.1

     total cpu time spent up to now is        4.3 secs

     total energy              =     -49.51790523 Ry
     Harris-Foulkes estimate   =     -49.51806269 Ry
     estimated scf accuracy    <       0.00404661 Ry

     iteration #  4     ecut=    20.00 Ry     beta=0.10
     RMM-DIIS diagonalization
     ethr =  4.17E-06,  avg # of iterations =  2.5

     total cpu time spent up to now is        4.5 secs

     total energy              =     -49.51764336 Ry
     Harris-Foulkes estimate   =     -49.51790892 Ry
     estimated scf accuracy    <       0.00366971 Ry

     iteration #  5     ecut=    20.00 Ry     beta=0.10
     RMM-DIIS diagonalization
     ethr =  4.17E-06,  avg # of iterations =  2.5

     total cpu time spent up to now is        4.6 secs

     total energy              =     -49.51746768 Ry
     Harris-Foulkes estimate   =     -49.51765753 Ry
     estimated scf accuracy    <       0.00278405 Ry

     iteration #  6     ecut=    20.00 Ry     beta=0.10
     RMM-DIIS diagonalization
     ethr =  4.17E-06,  avg # of iterations =  2.5

     total cpu time spent up to now is        4.8 secs

     total energy              =     -49.51720280 Ry
     Harris-Foulkes estimate   =     -49.51747944 Ry
     estimated scf accuracy    <       0.00212161 Ry

     iteration #  7     ecut=    20.00 Ry     beta=0.10
     RMM-DIIS diagonalization
     ethr =  4.17E-06,  avg # of iterations =  2.6

     total cpu time spent up to now is        5.0 secs

     total energy              =     -49.51716966 Ry
     Harris-Foulkes estimate   =     -49.51723381 Ry
     estimated scf accuracy    <       0.00120806 Ry

     iteration #  8     ecut=    20.00 Ry     beta=0.10
     RMM-DIIS diagonalization
     ethr =  4.17E-06,  avg # of iterations =  2.5

     total cpu time spent up to now is        5.2 secs

     total energy              =     -49.51717240 Ry
     Harris-Foulkes estimate   =     -49.51717558 Ry
     estimated scf accuracy    <       0.00096109 Ry

     iteration #  9     ecut=    20.00 Ry     beta=0.10
     RMM-DIIS diagonalization
     ethr =  4.17E-06,  avg # of iterations =  2.5

     total cpu time spent up to now is        5.3 secs

     total energy              =     -49.51716453 Ry
     Harris-Foulkes estimate   =     -49.51717348 Ry
     estimated scf accuracy    <       0.00091923 Ry

     iteration # 10     ecut=    20.00 Ry     beta=0.10
     RMM-DIIS diagonalization
     ethr =  4.17E-06,  avg # of iterations =  2.5

     total cpu time spent up to now is        5.5 secs

     total energy              =     -49.51666858 Ry
     Harris-Foulkes estimate   =     -49.51716501 Ry
     estimated scf accuracy    <       0.00087364 Ry

     iteration # 11     ecut=    20.00 Ry     beta=0.10
     RMM-DIIS diagonalization
     ethr =  4.17E-06,  avg # of iterations =  3.1

     total cpu time spent up to now is        5.7 secs

     total energy              =     -49.51693258 Ry
     Harris-Foulkes estimate   =     -49.51693264 Ry
     estimated scf accuracy    <       0.00002624 Ry

     iteration # 12     ecut=    20.00 Ry     beta=0.10
     RMM-DIIS diagonalization
     ethr =  2.19E-07,  avg # of iterations =  3.0

     total cpu time spent up to now is        5.9 secs

     total energy              =     -49.51694878 Ry
     Harris-Foulkes estimate   =     -49.51693960 Ry
     estimated scf accuracy    <       0.00007341 Ry

     iteration # 13     ecut=    20.00 Ry     beta=0.10
     RMM-DIIS diagonalization
     ethr =  2.19E-07,  avg # of iterations =  2.5

     total cpu time spent up to now is        6.1 secs

     total energy              =     -49.51695017 Ry
     Harris-Foulkes estimate   =     -49.51694925 Ry
     estimated scf accuracy    <       0.00007295 Ry

     iteration # 14     ecut=    20.00 Ry     beta=0.10
     RMM-DIIS diagonalization
     ethr =  2.19E-07,  avg # of iterations =  2.5

     total cpu time spent up to now is        6.3 secs

     total energy              =     -49.51695097 Ry
     Harris-Foulkes estimate   =     -49.51695032 Ry
     estimated scf accuracy    <       0.00007544 Ry

     iteration # 15     ecut=    20.00 Ry     beta=0.10
     RMM-DIIS diagonalization
     ethr =  2.19E-07,  avg # of iterations =  2.5

     total cpu time spent up to now is        6.5 secs

     total energy              =     -49.51695182 Ry
     Harris-Foulkes estimate   =     -49.51695102 Ry
     estimated scf accuracy    <       0.00007793 Ry

     iteration # 16     ecut=    20.00 Ry     beta=0.10
     RMM-DIIS diagonalization
     ethr =  2.19E-07,  avg # of iterations =  2.5

     total cpu time spent up to now is        6.6 secs

     total energy              =     -49.51695146 Ry
     Harris-Foulkes estimate   =     -49.51695187 Ry
     estimated scf accuracy    <       0.00008371 Ry

     iteration # 17     ecut=    20.00 Ry     beta=0.10
     RMM-DIIS diagonalization
     ethr =  2.19E-07,  avg # of iterations =  2.5

     total cpu time spent up to now is        6.8 secs

     total energy              =     -49.51694717 Ry
     Harris-Foulkes estimate   =     -49.51695151 Ry
     estimated scf accuracy    <       0.00007694 Ry

     iteration # 18     ecut=    20.00 Ry     beta=0.10
     RMM-DIIS diagonalization
     ethr =  2.19E-07,  avg # of iterations =  2.5

     total cpu time spent up to now is        7.0 secs

     total energy              =     -49.51689907 Ry
     Harris-Foulkes estimate   =     -49.51694816 Ry
     estimated scf accuracy    <       0.00011905 Ry

     iteration # 19     ecut=    20.00 Ry     beta=0.10
     RMM-DIIS diagonalization
     ethr =  2.19E-07,  avg # of iterations =  3.1

     total cpu time spent up to now is        7.2 secs

     total energy              =     -49.51692993 Ry
     Harris-Foulkes estimate   =     -49.51693201 Ry
     estimated scf accuracy    <       0.00000384 Ry

     iteration # 20     ecut=    20.00 Ry     beta=0.10
     RMM-DIIS diagonalization
     ethr =  3.21E-08,  avg # of iterations =  2.9

     total cpu time spent up to now is        7.4 secs

     total energy              =     -49.51691533 Ry
     Harris-Foulkes estimate   =     -49.51693236 Ry
     estimated scf accuracy    <       0.00000254 Ry

     iteration # 21     ecut=    20.00 Ry     beta=0.10
     RMM-DIIS diagonalization
     ethr =  2.12E-08,  avg # of iterations =  2.8

     total cpu time spent up to now is        7.6 secs

     total energy              =     -49.51691747 Ry
     Harris-Foulkes estimate   =     -49.51691596 Ry
     estimated scf accuracy    <       0.00000032 Ry

     iteration # 22     ecut=    20.00 Ry     beta=0.10
     RMM-DIIS diagonalization
     ethr =  2.66E-09,  avg # of iterations =  2.9

     total cpu time spent up to now is        7.8 secs

     total energy              =     -49.51691140 Ry
     Harris-Foulkes estimate   =     -49.51691754 Ry
     estimated scf accuracy    <       0.00000021 Ry

     iteration # 23     ecut=    20.00 Ry     beta=0.10
     RMM-DIIS diagonalization
     ethr =  1.75E-09,  avg # of iterations =  3.0

     total cpu time spent up to now is        8.0 secs

     total energy              =     -49.51691402 Ry
     Harris-Foulkes estimate   =     -49.51691165 Ry
     estimated scf accuracy    <       0.00000045 Ry

     iteration # 24     ecut=    20.00 Ry     beta=0.10
     RMM-DIIS diagonalization
     ethr =  1.75E-09,  avg # of iterations =  2.9

     total cpu time spent up to now is        8.2 secs

     total energy              =     -49.51691663 Ry
     Harris-Foulkes estimate   =     -49.51691408 Ry
     estimated scf accuracy    <       0.00000004 Ry

     iteration # 25     ecut=    20.00 Ry     beta=0.10
     RMM-DIIS diagonalization
     ethr =  3.20E-10,  avg # of iterations =  2.7

     total cpu time spent up to now is        8.3 secs

     End of self-consistent calculation

          k = 0.0833 0.0833 0.0000 (  3999 PWs)   bands (ev):

   -12.0774  -8.5020  -8.5020  -6.7937  -6.7937  -6.0169  -5.0166  -4.1445
    -2.8493  -2.7854

          k = 0.0833 0.2500 0.0000 (  4011 PWs)   bands (ev):

   -11.8292  -9.6345  -8.2578  -6.5660  -6.1154  -5.7794  -5.2223  -4.6626
    -3.7137  -2.5547

          k = 0.0833 0.4167 0.0000 (  4016 PWs)   bands (ev):

   -11.3350 -10.5996  -7.7721  -7.0525  -6.1146  -5.4588  -5.3072  -4.6088
    -3.3875  -2.0968

          k = 0.2500 0.2500 0.0000 (  4007 PWs)   bands (ev):

   -11.5815  -9.3902  -9.3902  -7.2357  -5.5421  -5.0003  -5.0003  -3.6879
    -3.4798  -3.4798

          k = 0.2500 0.4167 0.0000 (  4019 PWs)   bands (ev):

   -11.0879 -10.3536  -8.9038  -8.1817  -5.0707  -4.5704  -4.3733  -3.9882
    -3.1880  -3.0144

          k = 0.4167 0.4167 0.0000 (  4005 PWs)   bands (ev):

   -10.5959  -9.8641  -9.8641  -9.1361  -4.6000  -3.9046  -3.9045  -3.2117
    -2.8403  -2.7768

     the Fermi energy is    -4.9785 ev

!    total energy              =     -49.51692204 Ry
     Harris-Foulkes estimate   =     -49.51691664 Ry
     estimated scf accuracy    <          6.9E-09 Ry

     The total energy is the sum of the following terms:

     one-electron contribution =    -319.53525739 Ry
     hartree contribution      =     160.00691471 Ry
     xc contribution           =     -39.20933851 Ry
     ewald contribution        =     149.23211567 Ry
     smearing contrib. (-TS)   =      -0.00032387 Ry
     pot.stat. contrib. (-muN) =      -0.01103264 Ry

     convergence has been achieved in  25 iterations

     number of scf cycles    =   3
     number of bfgs steps    =   2

     grand-energy   old      =     -49.5169335043 Ry
     grand-energy   new      =     -49.5169220366 Ry

     new trust radius        =       0.0637691611 bohr
     new conv_thr            =       0.0000000100 Ry


ATOMIC_POSITIONS (angstrom)
Al       0.000000000   0.000000000   0.000000000
Al       2.863450038   0.000000000   0.000000000
Al       0.000000000   2.863450038   0.000000000
Al       2.863450038   2.863450038   0.000000000


     FCP: Total Charge =     0.031608  ->     0.026366
     FCP: Fermi Energy =    -0.365916 Ry (   -4.978534 eV)
     FCP: Target Level =    -0.349045 Ry (   -4.749000 eV)
     FCP: Force on FCP =     0.016870 Ry (    0.229534 eV)
     FCP: Force Thr.   =     0.000735 Ry (    0.010000 eV)



     Writing output data file Al001_bc3_FCP_vm05.save
     Check: negative starting charge=   -0.000169
     NEW-OLD atomic charge density approx. for the potential

     Check: negative/imaginary core charge=   -0.000012    0.000000
     Check: negative starting charge=   -0.000169
     extrapolated charge   11.96839, renormalised to   11.97363

     total cpu time spent up to now is        8.7 secs

     per-process dynamical memory:    12.1 Mb

     Self-consistent Calculation

     iteration #  1     ecut=    20.00 Ry     beta=0.10
     RMM-DIIS diagonalization
     ethr =  1.00E-06,  avg # of iterations =  1.5

     Threshold (ethr) on eigenvalues was too large:
     Diagonalizing with lowered threshold

     RMM-DIIS diagonalization
     ethr =  4.67E-10,  avg # of iterations =  1.6

     total cpu time spent up to now is        9.1 secs

     total energy              =     -49.51698100 Ry
     Harris-Foulkes estimate   =     -49.65383400 Ry
     estimated scf accuracy    <       0.00000008 Ry

     iteration #  2     ecut=    20.00 Ry     beta=0.10
     RMM-DIIS diagonalization
     ethr =  6.74E-10,  avg # of iterations =  4.4

     total cpu time spent up to now is        9.4 secs

     total energy              =     -49.51700576 Ry
     Harris-Foulkes estimate   =     -49.51700522 Ry
     estimated scf accuracy    <       0.00006572 Ry

     iteration #  3     ecut=    20.00 Ry     beta=0.10
     RMM-DIIS diagonalization
     ethr =  6.74E-10,  avg # of iterations =  3.0

     total cpu time spent up to now is        9.6 secs

     total energy              =     -49.51700629 Ry
     Harris-Foulkes estimate   =     -49.51700599 Ry
     estimated scf accuracy    <       0.00007328 Ry

     iteration #  4     ecut=    20.00 Ry     beta=0.10
     RMM-DIIS diagonalization
     ethr =  6.74E-10,  avg # of iterations =  2.6

     total cpu time spent up to now is        9.8 secs

     total energy              =     -49.51700692 Ry
     Harris-Foulkes estimate   =     -49.51700630 Ry
     estimated scf accuracy    <       0.00007381 Ry

     iteration #  5     ecut=    20.00 Ry     beta=0.10
     RMM-DIIS diagonalization
     ethr =  6.74E-10,  avg # of iterations =  2.5

     total cpu time spent up to now is       10.1 secs

     total energy              =     -49.51700916 Ry
     Harris-Foulkes estimate   =     -49.51700693 Ry
     estimated scf accuracy    <       0.00007613 Ry

     iteration #  6     ecut=    20.00 Ry     beta=0.10
     RMM-DIIS diagonalization
     ethr =  6.74E-10,  avg # of iterations =  3.0

     total cpu time spent up to now is       10.3 secs

     total energy              =     -49.51700921 Ry
     Harris-Foulkes estimate   =     -49.51700920 Ry
     estimated scf accuracy    <       0.00008463 Ry

     iteration #  7     ecut=    20.00 Ry     beta=0.10
     RMM-DIIS diagonalization
     ethr =  6.74E-10,  avg # of iterations =  2.5

     total cpu time spent up to now is       10.5 secs

     total energy              =     -49.51700851 Ry
     Harris-Foulkes estimate   =     -49.51700921 Ry
     estimated scf accuracy    <       0.00008502 Ry

     iteration #  8     ecut=    20.00 Ry     beta=0.10
     RMM-DIIS diagonalization
     ethr =  6.74E-10,  avg # of iterations =  2.5

     total cpu time spent up to now is       10.7 secs

     total energy              =     -49.51699461 Ry
     Harris-Foulkes estimate   =     -49.51700852 Ry
     estimated scf accuracy    <       0.00008272 Ry

     iteration #  9     ecut=    20.00 Ry     beta=0.10
     RMM-DIIS diagonalization
     ethr =  6.74E-10,  avg # of iterations =  4.0

     total cpu time spent up to now is       11.0 secs

     total energy              =     -49.51699097 Ry
     Harris-Foulkes estimate   =     -49.51699654 Ry
     estimated scf accuracy    <       0.00003652 Ry

     iteration # 10     ecut=    20.00 Ry     beta=0.10
     RMM-DIIS diagonalization
     ethr =  6.74E-10,  avg # of iterations =  3.8

     total cpu time spent up to now is       11.2 secs

     total energy              =     -49.51698557 Ry
     Harris-Foulkes estimate   =     -49.51699191 Ry
     estimated scf accuracy    <       0.00001567 Ry

     iteration # 11     ecut=    20.00 Ry     beta=0.10
     RMM-DIIS diagonalization
     ethr =  6.74E-10,  avg # of iterations =  4.2

     total cpu time spent up to now is       11.5 secs

     total energy              =     -49.51698923 Ry
     Harris-Foulkes estimate   =     -49.51698911 Ry
     estimated scf accuracy    <       0.00000005 Ry

     iteration # 12     ecut=    20.00 Ry     beta=0.10
     RMM-DIIS diagonalization
     ethr =  3.77E-10,  avg # of iterations =  2.8

     total cpu time spent up to now is       11.7 secs

     total energy              =     -49.51698952 Ry
     Harris-Foulkes estimate   =     -49.51698926 Ry
     estimated scf accuracy    <       0.00000008 Ry

     iteration # 13     ecut=    20.00 Ry     beta=0.10
     RMM-DIIS diagonalization
     ethr =  3.77E-10,  avg # of iterations =  2.5

     total cpu time spent up to now is       11.8 secs

     total energy              =     -49.51699051 Ry
     Harris-Foulkes estimate   =     -49.51698952 Ry
     estimated scf accuracy    <       0.00000007 Ry

     iteration # 14     ecut=    20.00 Ry     beta=0.10
     RMM-DIIS diagonalization
     ethr =  3.77E-10,  avg # of iterations =  2.5

     total cpu time spent up to now is       12.0 secs

     total energy              =     -49.51699110 Ry
     Harris-Foulkes estimate   =     -49.51699051 Ry
     estimated scf accuracy    <       0.00000006 Ry

     iteration # 15     ecut=    20.00 Ry     beta=0.10
     RMM-DIIS diagonalization
     ethr =  3.77E-10,  avg # of iterations =  2.5

     total cpu time spent up to now is       12.2 secs

     total energy              =     -49.51699103 Ry
     Harris-Foulkes estimate   =     -49.51699110 Ry
     estimated scf accuracy    <       0.00000005 Ry

     iteration # 16     ecut=    20.00 Ry     beta=0.10
     RMM-DIIS diagonalization
     ethr =  3.77E-10,  avg # of iterations =  2.5

     total cpu time spent up to now is       12.4 secs

     total energy              =     -49.51699142 Ry
     Harris-Foulkes estimate   =     -49.51699103 Ry
     estimated scf accuracy    <       0.00000005 Ry

     iteration # 17     ecut=    20.00 Ry     beta=0.10
     RMM-DIIS diagonalization
     ethr =  3.77E-10,  avg # of iterations =  2.5

     total cpu time spent up to now is       12.5 secs

     total energy              =     -49.51699125 Ry
     Harris-Foulkes estimate   =     -49.51699142 Ry
     estimated scf accuracy    <       0.00000003 Ry

     iteration # 18     ecut=    20.00 Ry     beta=0.10
     RMM-DIIS diagonalization
     ethr =  2.39E-10,  avg # of iterations =  2.6

     total cpu time spent up to now is       12.7 secs

     End of self-consistent calculation

          k = 0.0833 0.0833 0.0000 (  3999 PWs)   bands (ev):

   -11.9564  -8.3810  -8.3810  -6.6727  -6.6727  -5.8994  -4.8956  -4.0233
    -2.7285  -2.6672

          k = 0.0833 0.2500 0.0000 (  4011 PWs)   bands (ev):

   -11.7082  -9.5135  -8.1368  -6.4449  -5.9944  -5.6618  -5.1012  -4.5415
    -3.5958  -2.4365

          k = 0.0833 0.4167 0.0000 (  4016 PWs)   bands (ev):

   -11.2140 -10.4786  -7.6511  -6.9315  -5.9935  -5.3377  -5.1896  -4.4911
    -3.2665  -1.9786

          k = 0.2500 0.2500 0.0000 (  4007 PWs)   bands (ev):

   -11.4605  -9.2692  -9.2692  -7.1147  -5.4245  -4.8793  -4.8793  -3.5667
    -3.3620  -3.3620

          k = 0.2500 0.4167 0.0000 (  4019 PWs)   bands (ev):

   -10.9669 -10.2326  -8.7828  -8.0607  -4.9530  -4.4493  -4.2555  -3.8670
    -3.0669  -2.8965

          k = 0.4167 0.4167 0.0000 (  4005 PWs)   bands (ev):

   -10.4749  -9.7431  -9.7431  -9.0151  -4.4823  -3.7868  -3.7868  -3.0938
    -2.7192  -2.6555

     the Fermi energy is    -4.8572 ev

!    total energy              =     -49.51699066 Ry
     Harris-Foulkes estimate   =     -49.51699125 Ry
     estimated scf accuracy    <          5.5E-09 Ry

     The total energy is the sum of the following terms:

     one-electron contribution =    -319.64210158 Ry
     hartree contribution      =     160.11376604 Ry
     xc contribution           =     -39.21126197 Ry
     ewald contribution        =     149.23211567 Ry
     smearing contrib. (-TS)   =      -0.00030584 Ry
     pot.stat. contrib. (-muN) =      -0.00920299 Ry

     convergence has been achieved in  18 iterations

     number of scf cycles    =   4
     number of bfgs steps    =   3

     grand-energy   old      =     -49.5169220366 Ry
     grand-energy   new      =     -49.5169906613 Ry

     new trust radius        =       0.0568920949 bohr
     new conv_thr            =       0.0000000100 Ry


ATOMIC_POSITIONS (angstrom)
Al       0.000000000   0.000000000   0.000000000
Al       2.863450038   0.000000000   0.000000000
Al       0.000000000   2.863450038   0.000000000
Al       2.863450038   2.863450038   0.000000000


     FCP: Total Charge =     0.026366  ->     0.021690
     FCP: Fermi Energy =    -0.357000 Ry (   -4.857226 eV)
     FCP: Target Level =    -0.349045 Ry (   -4.749000 eV)
     FCP: Force on FCP =     0.007954 Ry (    0.108226 eV)
     FCP: Force Thr.   =     0.000735 Ry (    0.010000 eV)



     Writing output data file Al001_bc3_FCP_vm05.save
     Check: negative starting charge=   -0.000169
     NEW-OLD atomic charge density approx. for the potential

     Check: negative/imaginary core charge=   -0.000012    0.000000
     Check: negative starting charge=   -0.000169
     extrapolated charge   11.97363, renormalised to   11.97831

     total cpu time spent up to now is       13.0 secs

     per-process dynamical memory:    12.1 Mb

     Self-consistent Calculation

     iteration #  1     ecut=    20.00 Ry     beta=0.10
     RMM-DIIS diagonalization
     ethr =  1.00E-06,  avg # of iterations =  1.5

     Threshold (ethr) on eigenvalues was too large:
     Diagonalizing with lowered threshold

     RMM-DIIS diagonalization
     ethr =  4.77E-10,  avg # of iterations =  1.6

     total cpu time spent up to now is       13.4 secs

     total energy              =     -49.51700448 Ry
     Harris-Foulkes estimate   =     -49.63912491 Ry
     estimated scf accuracy    <       0.00000008 Ry

     iteration #  2     ecut=    20.00 Ry     beta=0.10
     RMM-DIIS diagonalization
     ethr =  6.78E-10,  avg # of iterations =  4.4

     total cpu time spent up to now is       13.6 secs

     total energy              =     -49.51702435 Ry
     Harris-Foulkes estimate   =     -49.51702386 Ry
     estimated scf accuracy    <       0.00005292 Ry

     iteration #  3     ecut=    20.00 Ry     beta=0.10
     RMM-DIIS diagonalization
     ethr =  6.78E-10,  avg # of iterations =  3.0

     total cpu time spent up to now is       13.8 secs

     total energy              =     -49.51702485 Ry
     Harris-Foulkes estimate   =     -49.51702453 Ry
     estimated scf accuracy    <       0.00005921 Ry

     iteration #  4     ecut=    20.00 Ry     beta=0.10
     RMM-DIIS diagonalization
     ethr =  6.78E-10,  avg # of iterations =  2.6

     total cpu time spent up to now is       14.0 secs

     total energy              =     -49.51702556 Ry
     Harris-Foulkes estimate   =     -49.51702485 Ry
     estimated scf accuracy    <       0.00005986 Ry

     iteration #  5     ecut=    20.00 Ry     beta=0.10
     RMM-DIIS diagonalization
     ethr =  6.78E-10,  avg # of iterations =  2.6

     total cpu time spent up to now is       14.2 secs

     total energy              =     -49.51702725 Ry
     Harris-Foulkes estimate   =     -49.51702556 Ry
     estimated scf accuracy    <       0.00006254 Ry

     iteration #  6     ecut=    20.00 Ry     beta=0.10
     RMM-DIIS diagonalization
     ethr =  6.78E-10,  avg # of iterations =  2.9

     total cpu time spent up to now is       14.4 secs

     total energy              =     -49.51702796 Ry
     Harris-Foulkes estimate   =     -49.51702729 Ry
     estimated scf accuracy    <       0.00006898 Ry

     iteration #  7     ecut=    20.00 Ry     beta=0.10
     RMM-DIIS diagonalization
     ethr =  6.78E-10,  avg # of iterations =  2.7

     total cpu time spent up to now is       14.6 secs

     total energy              =     -49.51702208 Ry
     Harris-Foulkes estimate   =     -49.51702797 Ry
     estimated scf accuracy    <       0.00007191 Ry

     iteration #  8     ecut=    20.00 Ry     beta=0.10
     RMM-DIIS diagonalization
     ethr =  6.78E-10,  avg # of iterations =  3.6

     total cpu time spent up to now is       14.8 secs

     total energy              =     -49.51701236 Ry
     Harris-Foulkes estimate   =     -49.51702246 Ry
     estimated scf accuracy    <       0.00005085 Ry

     iteration #  9     ecut=    20.00 Ry     beta=0.10
     RMM-DIIS diagonalization
     ethr =  6.78E-10,  avg # of iterations =  4.0

     total cpu time spent up to now is       15.1 secs

     total energy              =     -49.51701318 Ry
     Harris-Foulkes estimate   =     -49.51701427 Ry
     estimated scf accuracy    <       0.00001687 Ry

     iteration # 10     ecut=    20.00 Ry     beta=0.10
     RMM-DIIS diagonalization
     ethr =  6.78E-10,  avg # of iterations =  3.2

     total cpu time spent up to now is       15.3 secs

     total energy              =     -49.51700935 Ry
     Harris-Foulkes estimate   =     -49.51701330 Ry
     estimated scf accuracy    <       0.00001139 Ry

     iteration # 11     ecut=    20.00 Ry     beta=0.10
     RMM-DIIS diagonalization
     ethr =  6.78E-10,  avg # of iterations =  4.1

     total cpu time spent up to now is       15.5 secs

     End of self-consistent calculation

          k = 0.0833 0.0833 0.0000 (  3999 PWs)   bands (ev):

   -11.8482  -8.2727  -8.2727  -6.5644  -6.5644  -5.7942  -4.7873  -3.9149
    -2.6203  -2.5615

          k = 0.0833 0.2500 0.0000 (  4011 PWs)   bands (ev):

   -11.6000  -9.4053  -8.0286  -6.3367  -5.8861  -5.5567  -4.9930  -4.4331
    -3.4904  -2.3307

          k = 0.0833 0.4167 0.0000 (  4016 PWs)   bands (ev):

   -11.1058 -10.3704  -7.5429  -6.8232  -5.8853  -5.2294  -5.0844  -4.3858
    -3.1582  -1.8728

          k = 0.2500 0.2500 0.0000 (  4007 PWs)   bands (ev):

   -11.3523  -9.1610  -9.1610  -7.0065  -5.3194  -4.7710  -4.7710  -3.4583
    -3.2565  -3.2565

          k = 0.2500 0.4167 0.0000 (  4019 PWs)   bands (ev):

   -10.8587 -10.1244  -8.6746  -7.9525  -4.8478  -4.3410  -4.1502  -3.7587
    -2.9586  -2.7910

          k = 0.4167 0.4167 0.0000 (  4005 PWs)   bands (ev):

   -10.3667  -9.6349  -9.6349  -8.9069  -4.3770  -3.6814  -3.6814  -2.9884
    -2.6108  -2.5471

     the Fermi energy is    -4.7487 ev

!    total energy              =     -49.51701292 Ry
     Harris-Foulkes estimate   =     -49.51701168 Ry
     estimated scf accuracy    <          3.1E-09 Ry

     The total energy is the sum of the following terms:

     one-electron contribution =    -319.73582039 Ry
     hartree contribution      =     160.20752161 Ry
     xc contribution           =     -39.21296888 Ry
     ewald contribution        =     149.23211567 Ry
     smearing contrib. (-TS)   =      -0.00029028 Ry
     pot.stat. contrib. (-muN) =      -0.00757065 Ry

     convergence has been achieved in  11 iterations

     bfgs converged in   5 scf cycles and   4 bfgs steps
     (criteria: energy <  1.0E-04 Ry, force <  1.0E-03 Ry/Bohr)
     (criteria: force on FCP <  1.0E-02 eV)

     End of BFGS Geometry Optimization

     Final grand-energy   =     -49.5170129195 Ry
Begin final coordinates

ATOMIC_POSITIONS (angstrom)
Al       0.000000000   0.000000000   0.000000000
Al       2.863450038   0.000000000   0.000000000
Al       0.000000000   2.863450038   0.000000000
Al       2.863450038   2.863450038   0.000000000
End final coordinates


     FCP: Total Charge =     0.021690
     FCP: Fermi Energy =    -0.349025 Ry (   -4.748722 eV)
     FCP: Target Level =    -0.349045 Ry (   -4.749000 eV)
     FCP: Force on FCP =    -0.000020 Ry (   -0.000278 eV)
     FCP: Force Thr.   =     0.000735 Ry (    0.010000 eV)



     Writing output data file Al001_bc3_FCP_vm05.save

     init_run     :      0.49s CPU      0.50s WALL (       1 calls)
     electrons    :     13.64s CPU     13.81s WALL (       5 calls)
     update_pot   :      0.69s CPU      0.77s WALL (       4 calls)

     Called by init_run:
     wfcinit      :      0.11s CPU      0.11s WALL (       1 calls)
     potinit      :      0.08s CPU      0.09s WALL (       1 calls)

     Called by electrons:
     c_bands      :      9.04s CPU      9.10s WALL (      67 calls)
     sum_band     :      2.45s CPU      2.46s WALL (      67 calls)
     v_of_rho     :      1.58s CPU      1.58s WALL (      68 calls)
     newd         :      0.43s CPU      0.43s WALL (      68 calls)
     mix_rho      :      0.23s CPU      0.24s WALL (      67 calls)

     Called by c_bands:
     init_us_2    :      0.27s CPU      0.28s WALL (     810 calls)
     crmmdiagg    :      5.56s CPU      5.63s WALL (     402 calls)
     wfcrot       :      3.13s CPU      3.13s WALL (     354 calls)
     gsorth       :      0.26s CPU      0.25s WALL (     402 calls)

     Called by sum_band:
     sum_band:bec :      0.01s CPU      0.00s WALL (     402 calls)
     addusdens    :      0.46s CPU      0.46s WALL (      67 calls)

     Called by *rmmdiagg:
     h_psi        :      7.50s CPU      7.54s WALL (    1240 calls)
     s_psi        :      0.18s CPU      0.20s WALL (    1240 calls)
     cdiaghg      :      0.02s CPU      0.03s WALL (     354 calls)

     Called by h_psi:
     h_psi:pot    :      7.45s CPU      7.50s WALL (    1240 calls)
     h_psi:calbec :      0.25s CPU      0.24s WALL (    1240 calls)
     vloc_psi     :      6.99s CPU      7.05s WALL (    1240 calls)
     add_vuspsi   :      0.20s CPU      0.20s WALL (    1240 calls)

     General routines
     calbec       :      0.35s CPU      0.33s WALL (    1642 calls)
     fft          :      0.58s CPU      0.59s WALL (     895 calls)
     fftw         :      7.61s CPU      7.65s WALL (   23684 calls)
     davcio       :      0.00s CPU      0.00s WALL (       6 calls)

     Parallel routines
     fft_scatter  :      2.08s CPU      2.11s WALL (   24579 calls)

     PWSCF        :    15.20s CPU        15.69s WALL


   This run was terminated on:  17:28:48  11Jan2021            

=------------------------------------------------------------------------------=
   JOB DONE.
=------------------------------------------------------------------------------=
