
     Program PWSCF v.6.1 starts on  4Feb2021 at 23:10:41 

     This program is part of the open-source Quantum ESPRESSO suite
     for quantum simulation of materials; please cite
         "P. Giannozzi et al., J. Phys.:Condens. Matter 21 395502 (2009);
          URL http://www.quantum-espresso.org", 
     in publications or presentations arising from this work. More details at
     http://www.quantum-espresso.org/quote

     Parallel version (MPI & OpenMP), running on       4 processor cores
     Number of MPI processes:                 4
     Threads/MPI process:                     1
     R & G space division:  proc/nbgrp/npool/nimage =       4
     Waiting for input...
     Reading input from standard input

     Current dimensions of program PWSCF are:
     Max number of different atomic species (ntypx) = 10
     Max number of k-points (npk) =  40000
     Max angular momentum in pseudopotentials (lmaxx) =  3

     Subspace diagonalization in iterative solution of the eigenvalue problem:
     a serial algorithm will be used

     Found symmetry operation: I + ( -0.5000  0.0000  0.0000)
     This is a supercell, fractional translations are disabled

     Parallelization info
     --------------------
     sticks:   dense  smooth     PW     G-vecs:    dense   smooth      PW
     Min         187     187     54                 8037     8037    1261
     Max         188     188     56                 8044     8044    1262
     Sum         749     749    221                32157    32157    5047



     bravais-lattice index     =            0
     lattice parameter (alat)  =      10.8223  a.u.
     unit-cell volume          =    2655.9321 (a.u.)^3
     number of atoms/cell      =            4
     number of atomic types    =            1
     number of electrons       =        12.00
     number of Kohn-Sham states=           10
     kinetic-energy cutoff     =      20.0000  Ry
     charge density cutoff     =      80.0000  Ry
     convergence threshold     =      1.0E-06
     mixing beta               =       0.3000
     number of iterations used =            8  plain     mixing
     Exchange-correlation      =  SLA  PW   PBE  PBE ( 1  4  3  4 0 0)
     nstep                     =           50


     Effective Screening Medium Method
     =================================
     Boundary Conditions: Vacuum-Slab-Metal
     total charge in unit cell        =   0.0000
     grid points for fit at edges     =        4 


     >>>> FCP Relaxation is activated <<<<<
     Initial Total Charge =     0.000000 e
     Target Fermi Energy  =    -0.349045 Ry
                          =    -4.749000 eV

     celldm(1)=  10.822273  celldm(2)=   0.000000  celldm(3)=   0.000000
     celldm(4)=   0.000000  celldm(5)=   0.000000  celldm(6)=   0.000000

     crystal axes: (cart. coord. in units of alat)
               a(1) = (   1.000000   0.000000   0.000000 )  
               a(2) = (   0.000000   1.000000   0.000000 )  
               a(3) = (   0.000000   0.000000   2.095374 )  

     reciprocal axes: (cart. coord. in units 2 pi/alat)
               b(1) = (  1.000000  0.000000  0.000000 )  
               b(2) = (  0.000000  1.000000  0.000000 )  
               b(3) = (  0.000000  0.000000  0.477242 )  


     PseudoPot. # 1 for Al read from file:
     /Users/otani/Program/q-e/git-worktrees/qe-6.1-rism/pseudo/Al.pbe-n-van.UPF
     MD5 check sum: cbc97ad259b400557db688b98a6ada97
     Pseudo is Ultrasoft + core correction, Zval =  3.0
     Generated by new atomic code, or converted to UPF format
     Using radial grid of  893 points,  2 beta functions with: 
                l(1) =   0
                l(2) =   1
     Q(r) pseudized with  8 coefficients,  rinner =    0.900   0.900   0.900


     atomic species   valence    mass     pseudopotential
        Al             3.00    26.98154     Al( 1.00)

      8 Sym. Ops. (no inversion) found



   Cartesian axes

     site n.     atom                  positions (alat units)
         1           Al  tau(   1) = (   0.0000000   0.0000000   0.0000000  )
         2           Al  tau(   2) = (   0.5000000   0.0000000   0.0000000  )
         3           Al  tau(   3) = (   0.0000000   0.5000000   0.0000000  )
         4           Al  tau(   4) = (   0.5000000   0.5000000   0.0000000  )

     number of k points=     6  Methfessel-Paxton smearing, width (Ry)=  0.0300
                       cart. coord. in units 2pi/alat
        k(    1) = (   0.0833333   0.0833333   0.0000000), wk =   0.2222222
        k(    2) = (   0.0833333   0.2500000   0.0000000), wk =   0.4444444
        k(    3) = (   0.0833333   0.4166667   0.0000000), wk =   0.4444444
        k(    4) = (   0.2500000   0.2500000   0.0000000), wk =   0.2222222
        k(    5) = (   0.2500000   0.4166667   0.0000000), wk =   0.4444444
        k(    6) = (   0.4166667   0.4166667   0.0000000), wk =   0.2222222

     Dense  grid:    32157 G-vectors     FFT dimensions: (  32,  32,  72)

     Estimated max dynamical RAM per process >       7.08MB

     Estimated total allocated dynamical RAM >      28.32MB

     Check: negative/imaginary core charge=   -0.000012    0.000000

     Initial potential from superposition of free atoms
     Check: negative starting charge=   -0.000169

     starting charge   11.99014, renormalised to   12.00000

     negative rho (up, down):  1.687E-04 0.000E+00
     Starting wfc are   16 randomized atomic wfcs

     total cpu time spent up to now is        0.2 secs

     Self-consistent Calculation

     iteration #  1     ecut=    20.00 Ry     beta=0.30
     Davidson diagonalization with overlap
     ethr =  1.00E-02,  avg # of iterations =  2.8

     Threshold (ethr) on eigenvalues was too large:
     Diagonalizing with lowered threshold

     Davidson diagonalization with overlap
     ethr =  1.97E-04,  avg # of iterations =  8.2

     negative rho (up, down):  9.252E-05 0.000E+00

     total cpu time spent up to now is        0.5 secs

     total energy              =     -49.52185221 Ry
     Harris-Foulkes estimate   =     -49.53872234 Ry
     estimated scf accuracy    <       0.06966459 Ry

     iteration #  2     ecut=    20.00 Ry     beta=0.30
     Davidson diagonalization with overlap
     ethr =  5.81E-04,  avg # of iterations =  1.0

     negative rho (up, down):  2.512E-06 0.000E+00

     total cpu time spent up to now is        0.6 secs

     total energy              =     -49.51167355 Ry
     Harris-Foulkes estimate   =     -49.52338214 Ry
     estimated scf accuracy    <       0.02665876 Ry

     iteration #  3     ecut=    20.00 Ry     beta=0.30
     Davidson diagonalization with overlap
     ethr =  2.22E-04,  avg # of iterations =  1.0

     total cpu time spent up to now is        0.7 secs

     total energy              =     -49.51472272 Ry
     Harris-Foulkes estimate   =     -49.51489714 Ry
     estimated scf accuracy    <       0.00050532 Ry

     iteration #  4     ecut=    20.00 Ry     beta=0.30
     Davidson diagonalization with overlap
     ethr =  4.21E-06,  avg # of iterations = 13.2

     total cpu time spent up to now is        1.0 secs

     total energy              =     -49.51656743 Ry
     Harris-Foulkes estimate   =     -49.51658424 Ry
     estimated scf accuracy    <       0.00011065 Ry

     iteration #  5     ecut=    20.00 Ry     beta=0.30
     Davidson diagonalization with overlap
     ethr =  9.22E-07,  avg # of iterations =  5.8

     total cpu time spent up to now is        1.1 secs

     total energy              =     -49.51656492 Ry
     Harris-Foulkes estimate   =     -49.51666414 Ry
     estimated scf accuracy    <       0.00017861 Ry

     iteration #  6     ecut=    20.00 Ry     beta=0.30
     Davidson diagonalization with overlap
     ethr =  9.22E-07,  avg # of iterations =  3.3

     total cpu time spent up to now is        1.2 secs

     total energy              =     -49.51661000 Ry
     Harris-Foulkes estimate   =     -49.51665136 Ry
     estimated scf accuracy    <       0.00012250 Ry

     iteration #  7     ecut=    20.00 Ry     beta=0.30
     Davidson diagonalization with overlap
     ethr =  9.22E-07,  avg # of iterations =  1.0

     total cpu time spent up to now is        1.3 secs

     End of self-consistent calculation

          k = 0.0833 0.0833 0.0000 (  3999 PWs)   bands (ev):

   -11.3498  -7.7743  -7.7743  -6.0659  -6.0659  -5.3101  -4.2885  -3.4155
    -2.1218  -2.0746

          k = 0.0833 0.2500 0.0000 (  4011 PWs)   bands (ev):

   -11.1017  -8.9069  -7.5301  -5.8381  -5.3875  -5.0724  -4.4943  -3.9342
    -3.0044  -1.8437

          k = 0.0833 0.4167 0.0000 (  4016 PWs)   bands (ev):

   -10.6074  -9.8720  -7.0444  -6.3247  -5.3867  -4.7307  -4.5999  -3.9009
    -2.6594  -1.3855

          k = 0.2500 0.2500 0.0000 (  4007 PWs)   bands (ev):

   -10.8539  -8.6625  -8.6625  -6.5079  -4.8350  -4.2723  -4.2723  -2.9587
    -2.7705  -2.7704

          k = 0.2500 0.4167 0.0000 (  4019 PWs)   bands (ev):

   -10.3603  -9.6260  -8.1761  -7.4540  -4.3633  -3.8419  -3.6652  -3.2590
    -2.4598  -2.3047

          k = 0.4167 0.4167 0.0000 (  4005 PWs)   bands (ev):

    -9.8683  -9.1365  -9.1365  -8.4085  -3.8922  -3.1962  -3.1962  -2.5022
    -2.1118  -2.0473

     the Fermi energy is    -4.2490 ev

!    total energy              =     -49.51662414 Ry
     Harris-Foulkes estimate   =     -49.51662415 Ry
     estimated scf accuracy    <       0.00000072 Ry

     The total energy is the sum of the following terms:

     one-electron contribution =    -320.17167573 Ry
     hartree contribution      =     160.64299558 Ry
     xc contribution           =     -39.21983442 Ry
     ewald contribution        =     149.23211567 Ry
     smearing contrib. (-TS)   =      -0.00022524 Ry
     pot.stat. contrib. (-muN) =      -0.00000000 Ry

     convergence has been achieved in   7 iterations

     BFGS Geometry Optimization

     number of scf cycles    =   1
     number of bfgs steps    =   0

     grand-energy   new      =     -49.5166241416 Ry

     new trust radius        =       0.1837623863 bohr
     new conv_thr            =       0.0000010000 Ry


ATOMIC_POSITIONS (angstrom)
Al       0.000000000   0.000000000   0.000000000
Al       2.863450038   0.000000000   0.000000000
Al       0.000000000   2.863450038   0.000000000
Al       2.863450038   2.863450038   0.000000000


     FCP: Total Charge =     0.000000  ->     0.015105
     FCP: Fermi Energy =    -0.312293 Ry (   -4.248957 eV)
     FCP: Target Level =    -0.349045 Ry (   -4.749000 eV)
     FCP: Force on FCP =    -0.036752 Ry (   -0.500043 eV)
     FCP: Force Thr.   =     0.000735 Ry (    0.010000 eV)



     Writing output data file Al001_bc3_FCP_vm05.save
     Check: negative starting charge=   -0.000169
     NEW-OLD atomic charge density approx. for the potential

     Check: negative/imaginary core charge=   -0.000012    0.000000
     Check: negative starting charge=   -0.000169
     extrapolated charge   12.00000, renormalised to   11.98489

     total cpu time spent up to now is        1.4 secs

     Self-consistent Calculation

     iteration #  1     ecut=    20.00 Ry     beta=0.30
     Davidson diagonalization with overlap
     ethr =  1.00E-06,  avg # of iterations =  1.5

     Threshold (ethr) on eigenvalues was too large:
     Diagonalizing with lowered threshold

     Davidson diagonalization with overlap
     ethr =  9.56E-09,  avg # of iterations =  8.7

     total cpu time spent up to now is        1.7 secs

     total energy              =     -49.51693831 Ry
     Harris-Foulkes estimate   =     -49.12235093 Ry
     estimated scf accuracy    <       0.00000458 Ry

     iteration #  2     ecut=    20.00 Ry     beta=0.30
     Davidson diagonalization with overlap
     ethr =  3.82E-08,  avg # of iterations = 10.8

     total cpu time spent up to now is        1.9 secs

     total energy              =     -49.51714950 Ry
     Harris-Foulkes estimate   =     -49.51714764 Ry
     estimated scf accuracy    <       0.00056085 Ry

     iteration #  3     ecut=    20.00 Ry     beta=0.30
     Davidson diagonalization with overlap
     ethr =  3.82E-08,  avg # of iterations =  1.0

     total cpu time spent up to now is        2.0 secs

     total energy              =     -49.51722069 Ry
     Harris-Foulkes estimate   =     -49.51714955 Ry
     estimated scf accuracy    <       0.00056603 Ry

     iteration #  4     ecut=    20.00 Ry     beta=0.30
     Davidson diagonalization with overlap
     ethr =  3.82E-08,  avg # of iterations =  5.0

     total cpu time spent up to now is        2.1 secs

     total energy              =     -49.51753378 Ry
     Harris-Foulkes estimate   =     -49.51722849 Ry
     estimated scf accuracy    <       0.00088632 Ry

     iteration #  5     ecut=    20.00 Ry     beta=0.30
     Davidson diagonalization with overlap
     ethr =  3.82E-08,  avg # of iterations =  9.2

     total cpu time spent up to now is        2.3 secs

     total energy              =     -49.51681138 Ry
     Harris-Foulkes estimate   =     -49.51759976 Ry
     estimated scf accuracy    <       0.00227049 Ry

     iteration #  6     ecut=    20.00 Ry     beta=0.30
     Davidson diagonalization with overlap
     ethr =  3.82E-08,  avg # of iterations = 12.0

     total cpu time spent up to now is        2.5 secs

     total energy              =     -49.51696071 Ry
     Harris-Foulkes estimate   =     -49.51703911 Ry
     estimated scf accuracy    <       0.00020342 Ry

     iteration #  7     ecut=    20.00 Ry     beta=0.30
     Davidson diagonalization with overlap
     ethr =  3.82E-08,  avg # of iterations =  7.2

     total cpu time spent up to now is        2.7 secs

     total energy              =     -49.51697454 Ry
     Harris-Foulkes estimate   =     -49.51698566 Ry
     estimated scf accuracy    <       0.00001251 Ry

     iteration #  8     ecut=    20.00 Ry     beta=0.30
     Davidson diagonalization with overlap
     ethr =  3.82E-08,  avg # of iterations =  4.8

     total cpu time spent up to now is        2.8 secs

     End of self-consistent calculation

          k = 0.0833 0.0833 0.0000 (  3999 PWs)   bands (ev):

   -11.6962  -8.1207  -8.1207  -6.4123  -6.4123  -5.6465  -4.6352  -3.7626
    -2.4682  -2.4130

          k = 0.0833 0.2500 0.0000 (  4011 PWs)   bands (ev):

   -11.4480  -9.2533  -7.8766  -6.1846  -5.7340  -5.4089  -4.8409  -4.2810
    -3.3422  -2.1821

          k = 0.0833 0.4167 0.0000 (  4016 PWs)   bands (ev):

   -10.9538 -10.2184  -7.3909  -6.6712  -5.7332  -5.0773  -4.9366  -4.2378
    -3.0060  -1.7241

          k = 0.2500 0.2500 0.0000 (  4007 PWs)   bands (ev):

   -11.2003  -9.0089  -9.0089  -6.8544  -5.1716  -4.6189  -4.6189  -3.3059
    -3.1083  -3.1083

          k = 0.2500 0.4167 0.0000 (  4019 PWs)   bands (ev):

   -10.7067  -9.9724  -8.5226  -7.8004  -4.7000  -4.1888  -4.0022  -3.6062
    -2.8065  -2.6427

          k = 0.4167 0.4167 0.0000 (  4005 PWs)   bands (ev):

   -10.2147  -9.4829  -9.4829  -8.7549  -4.2290  -3.5333  -3.5333  -2.8397
    -2.4585  -2.3946

     the Fermi energy is    -4.5963 ev

!    total energy              =     -49.51697843 Ry
     Harris-Foulkes estimate   =     -49.51697713 Ry
     estimated scf accuracy    <       0.00000021 Ry

     The total energy is the sum of the following terms:

     one-electron contribution =    -319.87519094 Ry
     hartree contribution      =     160.34718532 Ry
     xc contribution           =     -39.21554750 Ry
     ewald contribution        =     149.23211567 Ry
     smearing contrib. (-TS)   =      -0.00026848 Ry
     pot.stat. contrib. (-muN) =      -0.00527248 Ry

     convergence has been achieved in   8 iterations

     number of scf cycles    =   2
     number of bfgs steps    =   1

     grand-energy   old      =     -49.5166241416 Ry
     grand-energy   new      =     -49.5169784274 Ry

     new trust radius        =       0.0807975596 bohr
     new conv_thr            =       0.0000000100 Ry


ATOMIC_POSITIONS (angstrom)
Al       0.000000000   0.000000000   0.000000000
Al       2.863450038   0.000000000   0.000000000
Al       0.000000000   2.863450038   0.000000000
Al       2.863450038   2.863450038   0.000000000


     FCP: Total Charge =     0.015105  ->     0.021747
     FCP: Fermi Energy =    -0.337821 Ry (   -4.596285 eV)
     FCP: Target Level =    -0.349045 Ry (   -4.749000 eV)
     FCP: Force on FCP =    -0.011224 Ry (   -0.152715 eV)
     FCP: Force Thr.   =     0.000735 Ry (    0.010000 eV)



     Writing output data file Al001_bc3_FCP_vm05.save
     Check: negative starting charge=   -0.000169
     NEW-OLD atomic charge density approx. for the potential

     Check: negative/imaginary core charge=   -0.000012    0.000000
     Check: negative starting charge=   -0.000169
     extrapolated charge   11.98489, renormalised to   11.97825

     total cpu time spent up to now is        2.9 secs

     Self-consistent Calculation

     iteration #  1     ecut=    20.00 Ry     beta=0.30
     Davidson diagonalization with overlap
     ethr =  1.00E-06,  avg # of iterations =  1.0

     Threshold (ethr) on eigenvalues was too large:
     Diagonalizing with lowered threshold

     Davidson diagonalization with overlap
     ethr =  4.00E-09,  avg # of iterations =  6.0

     total cpu time spent up to now is        3.1 secs

     total energy              =     -49.51699410 Ry
     Harris-Foulkes estimate   =     -49.34356248 Ry
     estimated scf accuracy    <       0.00000371 Ry

     iteration #  2     ecut=    20.00 Ry     beta=0.30
     Davidson diagonalization with overlap
     ethr =  3.10E-08,  avg # of iterations =  8.7

     total cpu time spent up to now is        3.3 secs

     total energy              =     -49.51703600 Ry
     Harris-Foulkes estimate   =     -49.51704927 Ry
     estimated scf accuracy    <       0.00012254 Ry

     iteration #  3     ecut=    20.00 Ry     beta=0.30
     Davidson diagonalization with overlap
     ethr =  3.10E-08,  avg # of iterations =  1.0

     total cpu time spent up to now is        3.4 secs

     total energy              =     -49.51705584 Ry
     Harris-Foulkes estimate   =     -49.51703660 Ry
     estimated scf accuracy    <       0.00009457 Ry

     iteration #  4     ecut=    20.00 Ry     beta=0.30
     Davidson diagonalization with overlap
     ethr =  3.10E-08,  avg # of iterations =  1.0

     total cpu time spent up to now is        3.4 secs

     total energy              =     -49.51703180 Ry
     Harris-Foulkes estimate   =     -49.51705694 Ry
     estimated scf accuracy    <       0.00013583 Ry

     iteration #  5     ecut=    20.00 Ry     beta=0.30
     Davidson diagonalization with overlap
     ethr =  3.10E-08,  avg # of iterations =  1.3

     total cpu time spent up to now is        3.5 secs

     total energy              =     -49.51700501 Ry
     Harris-Foulkes estimate   =     -49.51703336 Ry
     estimated scf accuracy    <       0.00008574 Ry

     iteration #  6     ecut=    20.00 Ry     beta=0.30
     Davidson diagonalization with overlap
     ethr =  3.10E-08,  avg # of iterations =  5.3

     total cpu time spent up to now is        3.7 secs

     total energy              =     -49.51700935 Ry
     Harris-Foulkes estimate   =     -49.51701527 Ry
     estimated scf accuracy    <       0.00000690 Ry

     iteration #  7     ecut=    20.00 Ry     beta=0.30
     Davidson diagonalization with overlap
     ethr =  3.10E-08,  avg # of iterations =  4.8

     total cpu time spent up to now is        3.8 secs

     total energy              =     -49.51701365 Ry
     Harris-Foulkes estimate   =     -49.51701286 Ry
     estimated scf accuracy    <       0.00000248 Ry

     iteration #  8     ecut=    20.00 Ry     beta=0.30
     Davidson diagonalization with overlap
     ethr =  2.07E-08,  avg # of iterations =  1.0

     total cpu time spent up to now is        3.9 secs

     total energy              =     -49.51701181 Ry
     Harris-Foulkes estimate   =     -49.51701380 Ry
     estimated scf accuracy    <       0.00000440 Ry

     iteration #  9     ecut=    20.00 Ry     beta=0.30
     Davidson diagonalization with overlap
     ethr =  2.07E-08,  avg # of iterations =  1.0

     total cpu time spent up to now is        4.0 secs

     total energy              =     -49.51702428 Ry
     Harris-Foulkes estimate   =     -49.51701203 Ry
     estimated scf accuracy    <       0.00000194 Ry

     iteration # 10     ecut=    20.00 Ry     beta=0.30
     Davidson diagonalization with overlap
     ethr =  1.62E-08,  avg # of iterations =  4.8

     total cpu time spent up to now is        4.1 secs

     total energy              =     -49.51703764 Ry
     Harris-Foulkes estimate   =     -49.51702757 Ry
     estimated scf accuracy    <       0.00002730 Ry

     iteration # 11     ecut=    20.00 Ry     beta=0.30
     Davidson diagonalization with overlap
     ethr =  1.62E-08,  avg # of iterations =  4.3

     total cpu time spent up to now is        4.2 secs

     total energy              =     -49.51703618 Ry
     Harris-Foulkes estimate   =     -49.51703898 Ry
     estimated scf accuracy    <       0.00005925 Ry

     iteration # 12     ecut=    20.00 Ry     beta=0.30
     Davidson diagonalization with overlap
     ethr =  1.62E-08,  avg # of iterations =  1.0

     total cpu time spent up to now is        4.3 secs

     total energy              =     -49.51702431 Ry
     Harris-Foulkes estimate   =     -49.51703623 Ry
     estimated scf accuracy    <       0.00005442 Ry

     iteration # 13     ecut=    20.00 Ry     beta=0.30
     Davidson diagonalization with overlap
     ethr =  1.62E-08,  avg # of iterations =  6.0

     total cpu time spent up to now is        4.4 secs

     total energy              =     -49.51704181 Ry
     Harris-Foulkes estimate   =     -49.51702901 Ry
     estimated scf accuracy    <       0.00000798 Ry

     iteration # 14     ecut=    20.00 Ry     beta=0.30
     Davidson diagonalization with overlap
     ethr =  1.62E-08,  avg # of iterations =  7.7

     total cpu time spent up to now is        4.6 secs

     total energy              =     -49.51694169 Ry
     Harris-Foulkes estimate   =     -49.51706475 Ry
     estimated scf accuracy    <       0.00006039 Ry

     iteration # 15     ecut=    20.00 Ry     beta=0.30
     Davidson diagonalization with overlap
     ethr =  1.62E-08,  avg # of iterations = 12.3

     total cpu time spent up to now is        4.8 secs

     total energy              =     -49.51700836 Ry
     Harris-Foulkes estimate   =     -49.51708100 Ry
     estimated scf accuracy    <       0.00031798 Ry

     iteration # 16     ecut=    20.00 Ry     beta=0.30
     Davidson diagonalization with overlap
     ethr =  1.62E-08,  avg # of iterations =  7.3

     total cpu time spent up to now is        4.9 secs

     total energy              =     -49.51700821 Ry
     Harris-Foulkes estimate   =     -49.51702449 Ry
     estimated scf accuracy    <       0.00008123 Ry

     iteration # 17     ecut=    20.00 Ry     beta=0.30
     Davidson diagonalization with overlap
     ethr =  1.62E-08,  avg # of iterations =  6.0

     total cpu time spent up to now is        5.0 secs

     total energy              =     -49.51701259 Ry
     Harris-Foulkes estimate   =     -49.51701317 Ry
     estimated scf accuracy    <       0.00001815 Ry

     iteration # 18     ecut=    20.00 Ry     beta=0.30
     Davidson diagonalization with overlap
     ethr =  1.62E-08,  avg # of iterations =  5.0

     total cpu time spent up to now is        5.1 secs

     total energy              =     -49.51701912 Ry
     Harris-Foulkes estimate   =     -49.51701556 Ry
     estimated scf accuracy    <       0.00000053 Ry

     iteration # 19     ecut=    20.00 Ry     beta=0.30
     Davidson diagonalization with overlap
     ethr =  4.44E-09,  avg # of iterations =  7.2

     total cpu time spent up to now is        5.2 secs

     total energy              =     -49.51701682 Ry
     Harris-Foulkes estimate   =     -49.51702210 Ry
     estimated scf accuracy    <       0.00000915 Ry

     iteration # 20     ecut=    20.00 Ry     beta=0.30
     Davidson diagonalization with overlap
     ethr =  4.44E-09,  avg # of iterations =  5.8

     total cpu time spent up to now is        5.4 secs

     total energy              =     -49.51702044 Ry
     Harris-Foulkes estimate   =     -49.51701865 Ry
     estimated scf accuracy    <       0.00000008 Ry

     iteration # 21     ecut=    20.00 Ry     beta=0.30
     Davidson diagonalization with overlap
     ethr =  6.58E-10,  avg # of iterations =  5.0

     total cpu time spent up to now is        5.5 secs

     total energy              =     -49.51701864 Ry
     Harris-Foulkes estimate   =     -49.51702050 Ry
     estimated scf accuracy    <       0.00000024 Ry

     iteration # 22     ecut=    20.00 Ry     beta=0.30
     Davidson diagonalization with overlap
     ethr =  6.58E-10,  avg # of iterations =  1.0

     total cpu time spent up to now is        5.5 secs

     total energy              =     -49.51701725 Ry
     Harris-Foulkes estimate   =     -49.51701864 Ry
     estimated scf accuracy    <       0.00000028 Ry

     iteration # 23     ecut=    20.00 Ry     beta=0.30
     Davidson diagonalization with overlap
     ethr =  6.58E-10,  avg # of iterations =  1.0

     total cpu time spent up to now is        5.6 secs

     total energy              =     -49.51701566 Ry
     Harris-Foulkes estimate   =     -49.51701725 Ry
     estimated scf accuracy    <       0.00000029 Ry

     iteration # 24     ecut=    20.00 Ry     beta=0.30
     Davidson diagonalization with overlap
     ethr =  6.58E-10,  avg # of iterations =  1.0

     total cpu time spent up to now is        5.6 secs

     total energy              =     -49.51700789 Ry
     Harris-Foulkes estimate   =     -49.51701566 Ry
     estimated scf accuracy    <       0.00000021 Ry

     iteration # 25     ecut=    20.00 Ry     beta=0.30
     Davidson diagonalization with overlap
     ethr =  6.58E-10,  avg # of iterations =  5.8

     total cpu time spent up to now is        5.7 secs

     total energy              =     -49.51701125 Ry
     Harris-Foulkes estimate   =     -49.51700807 Ry
     estimated scf accuracy    <       0.00000019 Ry

     iteration # 26     ecut=    20.00 Ry     beta=0.30
     Davidson diagonalization with overlap
     ethr =  6.58E-10,  avg # of iterations =  4.2

     total cpu time spent up to now is        5.8 secs

     total energy              =     -49.51701217 Ry
     Harris-Foulkes estimate   =     -49.51701128 Ry
     estimated scf accuracy    <       0.00000004 Ry

     iteration # 27     ecut=    20.00 Ry     beta=0.30
     Davidson diagonalization with overlap
     ethr =  3.03E-10,  avg # of iterations =  4.5

     total cpu time spent up to now is        5.9 secs

     total energy              =     -49.51701262 Ry
     Harris-Foulkes estimate   =     -49.51701219 Ry
     estimated scf accuracy    <       0.00000001 Ry

     iteration # 28     ecut=    20.00 Ry     beta=0.30
     Davidson diagonalization with overlap
     ethr =  1.02E-10,  avg # of iterations =  2.8

     total cpu time spent up to now is        6.0 secs

     total energy              =     -49.51701275 Ry
     Harris-Foulkes estimate   =     -49.51701262 Ry
     estimated scf accuracy    <       0.00000001 Ry

     iteration # 29     ecut=    20.00 Ry     beta=0.30
     Davidson diagonalization with overlap
     ethr =  9.89E-11,  avg # of iterations =  1.0

     total cpu time spent up to now is        6.1 secs

     End of self-consistent calculation

          k = 0.0833 0.0833 0.0000 (  3999 PWs)   bands (ev):

   -11.8500  -8.2745  -8.2745  -6.5662  -6.5662  -5.7960  -4.7891  -3.9167
    -2.6221  -2.5633

          k = 0.0833 0.2500 0.0000 (  4011 PWs)   bands (ev):

   -11.6018  -9.4071  -8.0304  -6.3385  -5.8879  -5.5585  -4.9948  -4.4349
    -3.4922  -2.3325

          k = 0.0833 0.4167 0.0000 (  4016 PWs)   bands (ev):

   -11.1076 -10.3722  -7.5447  -6.8250  -5.8871  -5.2312  -5.0861  -4.3876
    -3.1600  -1.8746

          k = 0.2500 0.2500 0.0000 (  4007 PWs)   bands (ev):

   -11.3541  -9.1628  -9.1627  -7.0083  -5.3212  -4.7728  -4.7728  -3.4601
    -3.2583  -3.2583

          k = 0.2500 0.4167 0.0000 (  4019 PWs)   bands (ev):

   -10.8605 -10.1262  -8.6764  -7.9543  -4.8496  -4.3428  -4.1520  -3.7605
    -2.9604  -2.7928

          k = 0.4167 0.4167 0.0000 (  4005 PWs)   bands (ev):

   -10.3685  -9.6367  -9.6367  -8.9087  -4.3788  -3.6832  -3.6832  -2.9899
    -2.6126  -2.5489

     the Fermi energy is    -4.7505 ev

!    total energy              =     -49.51701267 Ry
     Harris-Foulkes estimate   =     -49.51701275 Ry
     estimated scf accuracy    <          9.6E-09 Ry

     The total energy is the sum of the following terms:

     one-electron contribution =    -319.73613363 Ry
     hartree contribution      =     160.20781681 Ry
     xc contribution           =     -39.21293038 Ry
     ewald contribution        =     149.23211567 Ry
     smearing contrib. (-TS)   =      -0.00029042 Ry
     pot.stat. contrib. (-muN) =      -0.00759071 Ry

     convergence has been achieved in  29 iterations

     bfgs converged in   3 scf cycles and   2 bfgs steps
     (criteria: energy <  1.0E-04 Ry, force <  1.0E-03 Ry/Bohr)
     (criteria: force on FCP <  1.0E-02 eV)

     End of BFGS Geometry Optimization

     Final grand-energy   =     -49.5170126695 Ry
Begin final coordinates

ATOMIC_POSITIONS (angstrom)
Al       0.000000000   0.000000000   0.000000000
Al       2.863450038   0.000000000   0.000000000
Al       0.000000000   2.863450038   0.000000000
Al       2.863450038   2.863450038   0.000000000
End final coordinates


     FCP: Total Charge =     0.021747
     FCP: Fermi Energy =    -0.349158 Ry (   -4.750533 eV)
     FCP: Target Level =    -0.349045 Ry (   -4.749000 eV)
     FCP: Force on FCP =     0.000113 Ry (    0.001533 eV)
     FCP: Force Thr.   =     0.000735 Ry (    0.010000 eV)



     Writing output data file Al001_bc3_FCP_vm05.save

     init_run     :      0.18s CPU      0.18s WALL (       1 calls)
     electrons    :      5.47s CPU      5.61s WALL (       3 calls)
     update_pot   :      0.14s CPU      0.16s WALL (       2 calls)

     Called by init_run:
     wfcinit      :      0.04s CPU      0.05s WALL (       1 calls)
     potinit      :      0.03s CPU      0.03s WALL (       1 calls)

     Called by electrons:
     c_bands      :      4.14s CPU      4.23s WALL (      47 calls)
     sum_band     :      0.72s CPU      0.73s WALL (      47 calls)
     v_of_rho     :      0.43s CPU      0.43s WALL (      47 calls)
     newd         :      0.13s CPU      0.13s WALL (      47 calls)
     mix_rho      :      0.08s CPU      0.09s WALL (      47 calls)

     Called by c_bands:
     init_us_2    :      0.07s CPU      0.08s WALL (     570 calls)
     cegterg      :      4.03s CPU      4.11s WALL (     282 calls)

     Called by sum_band:
     sum_band:bec :      0.00s CPU      0.00s WALL (     282 calls)
     addusdens    :      0.14s CPU      0.15s WALL (      47 calls)

     Called by *egterg:
     h_psi        :      2.95s CPU      3.01s WALL (    1617 calls)
     s_psi        :      0.07s CPU      0.07s WALL (    1617 calls)
     g_psi        :      0.02s CPU      0.02s WALL (    1329 calls)
     cdiaghg      :      0.30s CPU      0.31s WALL (    1581 calls)

     Called by h_psi:
     h_psi:pot    :      2.92s CPU      2.98s WALL (    1617 calls)
     h_psi:calbec :      0.13s CPU      0.13s WALL (    1617 calls)
     vloc_psi     :      2.70s CPU      2.76s WALL (    1617 calls)
     add_vuspsi   :      0.08s CPU      0.08s WALL (    1617 calls)

     General routines
     calbec       :      0.16s CPU      0.16s WALL (    1899 calls)
     fft          :      0.20s CPU      0.20s WALL (     619 calls)
     fftw         :      2.73s CPU      2.77s WALL (   21526 calls)
     davcio       :      0.00s CPU      0.00s WALL (       6 calls)

     Parallel routines
     fft_scatter  :      1.34s CPU      1.37s WALL (   22145 calls)

     PWSCF        :     5.87s CPU         6.08s WALL


   This run was terminated on:  23:10:47   4Feb2021            

=------------------------------------------------------------------------------=
   JOB DONE.
=------------------------------------------------------------------------------=
