
     Program PWSCF v.6.1 starts on  4Feb2021 at 23:11:38 

     This program is part of the open-source Quantum ESPRESSO suite
     for quantum simulation of materials; please cite
         "P. Giannozzi et al., J. Phys.:Condens. Matter 21 395502 (2009);
          URL http://www.quantum-espresso.org", 
     in publications or presentations arising from this work. More details at
     http://www.quantum-espresso.org/quote

     Parallel version (MPI & OpenMP), running on       4 processor cores
     Number of MPI processes:                 4
     Threads/MPI process:                     1
     R & G space division:  proc/nbgrp/npool/nimage =       4
     Waiting for input...
     Reading input from standard input

     Current dimensions of program PWSCF are:
     Max number of different atomic species (ntypx) = 10
     Max number of k-points (npk) =  40000
     Max angular momentum in pseudopotentials (lmaxx) =  3
     Message from routine iosys:
     mixing_mode=plain is ignored, 'TF' is adopted
     Message from routine iosys:
     accurate eigenvalues are required for all states: diago_full_acc=.TRUE.

     Subspace diagonalization in iterative solution of the eigenvalue problem:
     a serial algorithm will be used

     Found symmetry operation: I + ( -0.5000  0.0000  0.0000)
     This is a supercell, fractional translations are disabled

     Parallelization info
     --------------------
     sticks:   dense  smooth     PW     G-vecs:    dense   smooth      PW
     Min         187     187     54                 8037     8037    1261
     Max         188     188     56                 8044     8044    1262
     Sum         749     749    221                32157    32157    5047



     bravais-lattice index     =            0
     lattice parameter (alat)  =      10.8223  a.u.
     unit-cell volume          =    2655.9321 (a.u.)^3
     number of atoms/cell      =            4
     number of atomic types    =            1
     number of electrons       =        12.00
     number of Kohn-Sham states=           10
     kinetic-energy cutoff     =      20.0000  Ry
     charge density cutoff     =      80.0000  Ry
     convergence threshold     =      1.0E-06
     mixing beta               =       0.3000
     number of iterations used =            8  TF        mixing
     Exchange-correlation      =  SLA  PW   PBE  PBE ( 1  4  3  4 0 0)

     Effective Screening Medium Method
     =================================
     Boundary Conditions: Vacuum-Slab-Metal
     total charge in unit cell        =   0.0000
     grid points for fit at edges     =        4 


     >>>>> Grand-Canonical SCF is activated <<<<<
     Initial Total Charge  =     0.000000 e
     Target Fermi Energy   =    -3.749000 eV
     Thr. of Fermi Energy  =     0.010000 eV
     Wave-shift of Kerker  =     0.400000 bohr^-1
     Wave-shift of Hartree =     1.500000 bohr^-1
     Mixing Rate of Fermi  =     0.050000

     celldm(1)=  10.822273  celldm(2)=   0.000000  celldm(3)=   0.000000
     celldm(4)=   0.000000  celldm(5)=   0.000000  celldm(6)=   0.000000

     crystal axes: (cart. coord. in units of alat)
               a(1) = (   1.000000   0.000000   0.000000 )  
               a(2) = (   0.000000   1.000000   0.000000 )  
               a(3) = (   0.000000   0.000000   2.095374 )  

     reciprocal axes: (cart. coord. in units 2 pi/alat)
               b(1) = (  1.000000  0.000000  0.000000 )  
               b(2) = (  0.000000  1.000000  0.000000 )  
               b(3) = (  0.000000  0.000000  0.477242 )  


     PseudoPot. # 1 for Al read from file:
     /Users/otani/Program/q-e/git-worktrees/qe-6.1-rism/pseudo/Al.pbe-n-van.UPF
     MD5 check sum: cbc97ad259b400557db688b98a6ada97
     Pseudo is Ultrasoft + core correction, Zval =  3.0
     Generated by new atomic code, or converted to UPF format
     Using radial grid of  893 points,  2 beta functions with: 
                l(1) =   0
                l(2) =   1
     Q(r) pseudized with  8 coefficients,  rinner =    0.900   0.900   0.900


     atomic species   valence    mass     pseudopotential
        Al             3.00    26.98154     Al( 1.00)

      8 Sym. Ops. (no inversion) found



   Cartesian axes

     site n.     atom                  positions (alat units)
         1           Al  tau(   1) = (   0.0000000   0.0000000   0.0000000  )
         2           Al  tau(   2) = (   0.5000000   0.0000000   0.0000000  )
         3           Al  tau(   3) = (   0.0000000   0.5000000   0.0000000  )
         4           Al  tau(   4) = (   0.5000000   0.5000000   0.0000000  )

     number of k points=     6  Methfessel-Paxton smearing, width (Ry)=  0.0300
                       cart. coord. in units 2pi/alat
        k(    1) = (   0.0833333   0.0833333   0.0000000), wk =   0.2222222
        k(    2) = (   0.0833333   0.2500000   0.0000000), wk =   0.4444444
        k(    3) = (   0.0833333   0.4166667   0.0000000), wk =   0.4444444
        k(    4) = (   0.2500000   0.2500000   0.0000000), wk =   0.2222222
        k(    5) = (   0.2500000   0.4166667   0.0000000), wk =   0.4444444
        k(    6) = (   0.4166667   0.4166667   0.0000000), wk =   0.2222222

     Dense  grid:    32157 G-vectors     FFT dimensions: (  32,  32,  72)

     Estimated max dynamical RAM per process >       7.08MB

     Estimated total allocated dynamical RAM >      28.32MB

     Check: negative/imaginary core charge=   -0.000012    0.000000

     Initial potential from superposition of free atoms
     Check: negative starting charge=   -0.000169

     starting charge   11.99014, renormalised to   12.00000

     negative rho (up, down):  1.687E-04 0.000E+00
     Starting wfc are   16 randomized atomic wfcs

     total cpu time spent up to now is        0.2 secs

     Self-consistent Calculation

     iteration #  1     ecut=    20.00 Ry     beta=0.30
     Davidson diagonalization with overlap
     ethr =  1.00E-05,  avg # of iterations = 20.3

     negative rho (up, down):  1.025E-05 0.000E+00

     total cpu time spent up to now is        0.8 secs

     total energy              =     -49.54308575 Ry
     Harris-Foulkes estimate   =     -49.56869403 Ry
     estimated scf accuracy    <       0.02520192 Ry

     total charge of GC-SCF    =      -0.01568972 e
     the Fermi energy          =      -5.11063762 eV
                        (error :       1.36163762 eV)

     iteration #  2     ecut=    20.00 Ry     beta=0.30
     Davidson diagonalization with overlap
     ethr =  1.00E-05,  avg # of iterations =  4.7

     total cpu time spent up to now is        0.9 secs

     total energy              =     -49.50582574 Ry
     Harris-Foulkes estimate   =     -49.53816619 Ry
     estimated scf accuracy    <       0.01300952 Ry

     total charge of GC-SCF    =      -0.04531256 e
     the Fermi energy          =      -4.51012637 eV
                        (error :       0.76112637 eV)

     iteration #  3     ecut=    20.00 Ry     beta=0.30
     Davidson diagonalization with overlap
     ethr =  1.00E-05,  avg # of iterations =  8.7

     total cpu time spent up to now is        1.1 secs

     total energy              =     -49.51475801 Ry
     Harris-Foulkes estimate   =     -49.51854462 Ry
     estimated scf accuracy    <       0.00036433 Ry

     total charge of GC-SCF    =      -0.03219380 e
     the Fermi energy          =      -3.30342504 eV
                        (error :       0.44557496 eV)

     iteration #  4     ecut=    20.00 Ry     beta=0.30
     Davidson diagonalization with overlap
     ethr =  3.03E-06,  avg # of iterations =  6.8

     total cpu time spent up to now is        1.3 secs

     total energy              =     -49.51492163 Ry
     Harris-Foulkes estimate   =     -49.51548063 Ry
     estimated scf accuracy    <       0.00014593 Ry

     total charge of GC-SCF    =      -0.03506724 e
     the Fermi energy          =      -3.75052496 eV
                        (error :       0.00152496 eV)

     iteration #  5     ecut=    20.00 Ry     beta=0.30
     Davidson diagonalization with overlap
     ethr =  1.21E-06,  avg # of iterations =  3.8

     total cpu time spent up to now is        1.4 secs

     total energy              =     -49.51476907 Ry
     Harris-Foulkes estimate   =     -49.51525399 Ry
     estimated scf accuracy    <       0.00005750 Ry

     total charge of GC-SCF    =      -0.03099323 e
     the Fermi energy          =      -3.60757590 eV
                        (error :       0.14142410 eV)

     iteration #  6     ecut=    20.00 Ry     beta=0.30
     Davidson diagonalization with overlap
     c_bands:  1 eigenvalues not converged
     ethr =  4.78E-07,  avg # of iterations = 34.0

     total cpu time spent up to now is        1.8 secs

     total energy              =     -49.51465195 Ry
     Harris-Foulkes estimate   =     -49.51475566 Ry
     estimated scf accuracy    <       0.00000958 Ry

     total charge of GC-SCF    =      -0.02803372 e
     the Fermi energy          =      -3.66593704 eV
                        (error :       0.08306296 eV)

     iteration #  7     ecut=    20.00 Ry     beta=0.30
     Davidson diagonalization with overlap
     ethr =  7.96E-08,  avg # of iterations = 17.5

     total cpu time spent up to now is        2.1 secs

     total energy              =     -49.51493424 Ry
     Harris-Foulkes estimate   =     -49.51467750 Ry
     estimated scf accuracy    <       0.00000505 Ry

     total charge of GC-SCF    =      -0.02672251 e
     the Fermi energy          =      -3.73759712 eV
                        (error :       0.01140288 eV)

     iteration #  8     ecut=    20.00 Ry     beta=0.30
     Davidson diagonalization with overlap
     ethr =  4.20E-08,  avg # of iterations =  6.3

     total cpu time spent up to now is        2.3 secs

     total energy              =     -49.51546518 Ry
     Harris-Foulkes estimate   =     -49.51493764 Ry
     estimated scf accuracy    <       0.00000178 Ry

     total charge of GC-SCF    =      -0.02615517 e
     the Fermi energy          =      -3.73512547 eV
                        (error :       0.01387453 eV)

     iteration #  9     ecut=    20.00 Ry     beta=0.30
     Davidson diagonalization with overlap
     ethr =  1.48E-08,  avg # of iterations =  9.5

     total cpu time spent up to now is        2.5 secs

     total energy              =     -49.51620681 Ry
     Harris-Foulkes estimate   =     -49.51548485 Ry
     estimated scf accuracy    <       0.00000092 Ry

     total charge of GC-SCF    =      -0.02411430 e
     the Fermi energy          =      -3.71005353 eV
                        (error :       0.03894647 eV)

     iteration # 10     ecut=    20.00 Ry     beta=0.30
     Davidson diagonalization with overlap
     ethr =  7.62E-09,  avg # of iterations = 11.3

     total cpu time spent up to now is        2.7 secs

     total energy              =     -49.51641649 Ry
     Harris-Foulkes estimate   =     -49.51620460 Ry
     estimated scf accuracy    <       0.00000012 Ry

     total charge of GC-SCF    =      -0.02360126 e
     the Fermi energy          =      -3.73478910 eV
                        (error :       0.01421090 eV)

     iteration # 11     ecut=    20.00 Ry     beta=0.30
     Davidson diagonalization with overlap
     ethr =  1.02E-09,  avg # of iterations = 19.2

     total cpu time spent up to now is        3.0 secs

     End of self-consistent calculation

          k = 0.0833 0.0833 0.0000 (  3999 PWs)   bands (ev):

   -10.8441  -7.2685  -7.2685  -5.5598  -5.5598  -4.8191  -3.7824  -2.9089
    -1.6171  -1.5809

          k = 0.0833 0.2500 0.0000 (  4011 PWs)   bands (ev):

   -10.5959  -8.4011  -7.0243  -5.3321  -4.8815  -4.5814  -3.9883  -3.4278
    -2.5127  -1.3499

          k = 0.0833 0.4167 0.0000 (  4016 PWs)   bands (ev):

   -10.1016  -9.3662  -6.5386  -5.8188  -4.8806  -4.2245  -4.1087  -3.4094
    -2.1534  -0.8915

          k = 0.2500 0.2500 0.0000 (  4007 PWs)   bands (ev):

   -10.3481  -8.1567  -8.1567  -6.0020  -4.3439  -3.7662  -3.7662  -2.4522
    -2.2786  -2.2786

          k = 0.2500 0.4167 0.0000 (  4019 PWs)   bands (ev):

    -9.8545  -9.1202  -7.6703  -6.9481  -3.8719  -3.3361  -3.1736  -2.7534
    -1.9537  -1.8126

          k = 0.4167 0.4167 0.0000 (  4005 PWs)   bands (ev):

    -9.3625  -8.6307  -8.6307  -7.9026  -3.4007  -2.7044  -2.7044  -2.0106
    -1.6054  -1.6054

     the Fermi energy is    -3.7418 ev

!    total energy              =     -49.51705864 Ry
     Harris-Foulkes estimate   =     -49.51641626 Ry
     estimated scf accuracy    <       0.00000006 Ry

     total charge of GC-SCF    =      -0.02226114 e

     The total energy is the sum of the following terms:

     one-electron contribution =    -320.62367821 Ry
     hartree contribution      =     161.09742163 Ry
     xc contribution           =     -39.22887688 Ry
     ewald contribution        =     149.23211567 Ry
     smearing contrib. (-TS)   =      -0.00017483 Ry
     pot.stat. contrib. (-muN) =       0.00613398 Ry

     convergence has been achieved in  11 iterations

     Forces acting on atoms (cartesian axes, Ry/au):

     atom    1 type  1   force =     0.00000000    0.00000000    0.00001437
     atom    2 type  1   force =     0.00000000    0.00000000    0.00001441
     atom    3 type  1   force =     0.00000000    0.00000000    0.00001441
     atom    4 type  1   force =     0.00000000    0.00000000    0.00001394

     Total force =     0.000029     Total SCF correction =     0.000341
     SCF correction compared to forces is large: reduce conv_thr to get better values

     Writing output data file Al001_bc3_GCSCF_vm05.save

     init_run     :      0.16s CPU      0.17s WALL (       1 calls)
     electrons    :      2.72s CPU      2.79s WALL (       1 calls)
     forces       :      0.06s CPU      0.07s WALL (       1 calls)

     Called by init_run:
     wfcinit      :      0.04s CPU      0.04s WALL (       1 calls)
     potinit      :      0.02s CPU      0.03s WALL (       1 calls)

     Called by electrons:
     c_bands      :      2.38s CPU      2.43s WALL (      11 calls)
     sum_band     :      0.18s CPU      0.18s WALL (      11 calls)
     v_of_rho     :      0.12s CPU      0.12s WALL (      12 calls)
     newd         :      0.04s CPU      0.04s WALL (      12 calls)
     mix_rho      :      0.02s CPU      0.02s WALL (      11 calls)

     Called by c_bands:
     init_us_2    :      0.02s CPU      0.02s WALL (     144 calls)
     cegterg      :      2.35s CPU      2.40s WALL (      84 calls)

     Called by sum_band:
     sum_band:bec :      0.00s CPU      0.00s WALL (      66 calls)
     addusdens    :      0.03s CPU      0.04s WALL (      11 calls)

     Called by *egterg:
     h_psi        :      1.66s CPU      1.69s WALL (     943 calls)
     s_psi        :      0.04s CPU      0.04s WALL (     943 calls)
     g_psi        :      0.02s CPU      0.02s WALL (     853 calls)
     cdiaghg      :      0.20s CPU      0.21s WALL (     933 calls)

     Called by h_psi:
     h_psi:pot    :      1.64s CPU      1.67s WALL (     943 calls)
     h_psi:calbec :      0.07s CPU      0.08s WALL (     943 calls)
     vloc_psi     :      1.51s CPU      1.55s WALL (     943 calls)
     add_vuspsi   :      0.05s CPU      0.05s WALL (     943 calls)

     General routines
     calbec       :      0.08s CPU      0.08s WALL (    1033 calls)
     fft          :      0.06s CPU      0.06s WALL (     166 calls)
     fftw         :      1.42s CPU      1.45s WALL (   10312 calls)
     davcio       :      0.00s CPU      0.00s WALL (       6 calls)

     Parallel routines
     fft_scatter  :      0.68s CPU      0.69s WALL (   10478 calls)

     PWSCF        :     2.99s CPU         3.09s WALL


   This run was terminated on:  23:11:41   4Feb2021            

=------------------------------------------------------------------------------=
   JOB DONE.
=------------------------------------------------------------------------------=
