
     Program PWSCF v.6.1 starts on 11Jan2021 at 17:29:10 

     This program is part of the open-source Quantum ESPRESSO suite
     for quantum simulation of materials; please cite
         "P. Giannozzi et al., J. Phys.:Condens. Matter 21 395502 (2009);
          URL http://www.quantum-espresso.org", 
     in publications or presentations arising from this work. More details at
     http://www.quantum-espresso.org/quote

     Parallel version (MPI), running on     4 processors
     R & G space division:  proc/nbgrp/npool/nimage =       4
     Waiting for input...
     Reading input from standard input

     Current dimensions of program PWSCF are:
     Max number of different atomic species (ntypx) = 10
     Max number of k-points (npk) =  40000
     Max angular momentum in pseudopotentials (lmaxx) =  3
     Message from routine iosys:
     mixing_mode=plain is ignored, 'TF' is adopted
     Message from routine iosys:
     accurate eigenvalues are required for all states: diago_full_acc=.TRUE.
     Message from routine iosys:
     eigenvalues have to be converged: diago_rmm_conv=.TRUE.

     Subspace diagonalization in iterative solution of the eigenvalue problem:
     a serial algorithm will be used

     Found symmetry operation: I + ( -0.5000  0.0000  0.0000)
     This is a supercell, fractional translations are disabled

     Parallelization info
     --------------------
     sticks:   dense  smooth     PW     G-vecs:    dense   smooth      PW
     Min         187     187     54                 8037     8037    1261
     Max         188     188     56                 8044     8044    1262
     Sum         749     749    221                32157    32157    5047



     bravais-lattice index     =            0
     lattice parameter (alat)  =      10.8223  a.u.
     unit-cell volume          =    2655.9321 (a.u.)^3
     number of atoms/cell      =            4
     number of atomic types    =            1
     number of electrons       =        12.00
     number of Kohn-Sham states=           10
     kinetic-energy cutoff     =      20.0000  Ry
     charge density cutoff     =      80.0000  Ry
     convergence threshold     =      1.0E-06
     mixing beta               =       0.1000
     number of iterations used =            8  TF        mixing
     Exchange-correlation      =  SLA  PW   PBE  PBE ( 1  4  3  4 0 0)

     Effective Screening Medium Method
     =================================
     Boundary Conditions: Vacuum-Slab-Metal
     total charge in unit cell        =   0.0000
     grid points for fit at edges     =        4 


     >>>>> Grand-Canonical SCF is activated <<<<<
     Initial Total Charge  =     0.000000 e
     Target Fermi Energy   =    -4.749000 eV
     Thr. of Fermi Energy  =     0.010000 eV
     Wave-shift of Kerker  =     0.400000 bohr^-1
     Wave-shift of Hartree =     1.500000 bohr^-1
     Mixing Rate of Fermi  =     0.050000

     celldm(1)=  10.822273  celldm(2)=   0.000000  celldm(3)=   0.000000
     celldm(4)=   0.000000  celldm(5)=   0.000000  celldm(6)=   0.000000

     crystal axes: (cart. coord. in units of alat)
               a(1) = (   1.000000   0.000000   0.000000 )  
               a(2) = (   0.000000   1.000000   0.000000 )  
               a(3) = (   0.000000   0.000000   2.095374 )  

     reciprocal axes: (cart. coord. in units 2 pi/alat)
               b(1) = (  1.000000  0.000000  0.000000 )  
               b(2) = (  0.000000  1.000000  0.000000 )  
               b(3) = (  0.000000  0.000000  0.477242 )  


     PseudoPot. # 1 for Al read from file:
     /home1/gler/share/qe-6.1-rism/pseudo/Al.pbe-n-van.UPF
     MD5 check sum: b11ded24487aef5bc42d5c7a2e22a7b6
     Pseudo is Ultrasoft + core correction, Zval =  3.0
     Generated by new atomic code, or converted to UPF format
     Using radial grid of  893 points,  2 beta functions with: 
                l(1) =   0
                l(2) =   1
     Q(r) pseudized with  8 coefficients,  rinner =    0.900   0.900   0.900


     atomic species   valence    mass     pseudopotential
        Al             3.00    26.98154     Al( 1.00)

      8 Sym. Ops. (no inversion) found



   Cartesian axes

     site n.     atom                  positions (alat units)
         1           Al  tau(   1) = (   0.0000000   0.0000000   0.0000000  )
         2           Al  tau(   2) = (   0.5000000   0.0000000   0.0000000  )
         3           Al  tau(   3) = (   0.0000000   0.5000000   0.0000000  )
         4           Al  tau(   4) = (   0.5000000   0.5000000   0.0000000  )

     number of k points=     6  Methfessel-Paxton smearing, width (Ry)=  0.0300
                       cart. coord. in units 2pi/alat
        k(    1) = (   0.0833333   0.0833333   0.0000000), wk =   0.2222222
        k(    2) = (   0.0833333   0.2500000   0.0000000), wk =   0.4444444
        k(    3) = (   0.0833333   0.4166667   0.0000000), wk =   0.4444444
        k(    4) = (   0.2500000   0.2500000   0.0000000), wk =   0.2222222
        k(    5) = (   0.2500000   0.4166667   0.0000000), wk =   0.4444444
        k(    6) = (   0.4166667   0.4166667   0.0000000), wk =   0.2222222

     Dense  grid:    32157 G-vectors     FFT dimensions: (  32,  32,  72)

     Estimated max dynamical RAM per process >       8.41MB

     Estimated total allocated dynamical RAM >      33.64MB

     Check: negative/imaginary core charge=   -0.000012    0.000000

     Initial potential from superposition of free atoms
     Check: negative starting charge=   -0.000169

     starting charge   11.99014, renormalised to   12.00000

     negative rho (up, down):  1.687E-04 0.000E+00
     Starting wfc are   16 randomized atomic wfcs

     total cpu time spent up to now is        0.5 secs

     per-process dynamical memory:     6.6 Mb

     Self-consistent Calculation

     iteration #  1     ecut=    20.00 Ry     beta=0.10
     RMM-DIIS diagonalization
     ethr =  1.00E-05,  avg # of iterations =  8.5

     negative rho (up, down):  8.224E-05 0.000E+00

     total cpu time spent up to now is        1.2 secs

     total energy              =     -49.53900523 Ry
     Harris-Foulkes estimate   =     -49.54390170 Ry
     estimated scf accuracy    <       0.02422535 Ry

     total charge of GC-SCF    =      -0.00160992 e
     the Fermi energy          =      -5.16069942 eV
                        (error :       0.41169942 eV)

     iteration #  2     ecut=    20.00 Ry     beta=0.10
     RMM-DIIS diagonalization
     ethr =  1.00E-05,  avg # of iterations =  2.5

     total cpu time spent up to now is        1.4 secs

     total energy              =     -49.50631202 Ry
     Harris-Foulkes estimate   =     -49.53869583 Ry
     estimated scf accuracy    <       0.01991311 Ry

     total charge of GC-SCF    =      -0.01474229 e
     the Fermi energy          =      -5.06927397 eV
                        (error :       0.32027397 eV)

     iteration #  3     ecut=    20.00 Ry     beta=0.10
     RMM-DIIS diagonalization
     ethr =  1.00E-05,  avg # of iterations =  5.0

     total cpu time spent up to now is        1.7 secs

     total energy              =     -49.51698242 Ry
     Harris-Foulkes estimate   =     -49.51864078 Ry
     estimated scf accuracy    <       0.00030850 Ry

     total charge of GC-SCF    =      -0.00712026 e
     the Fermi energy          =      -4.24081296 eV
                        (error :       0.50818704 eV)

     iteration #  4     ecut=    20.00 Ry     beta=0.10
     RMM-DIIS diagonalization
     ethr =  2.57E-06,  avg # of iterations =  3.6

     total cpu time spent up to now is        2.0 secs

     total energy              =     -49.51564495 Ry
     Harris-Foulkes estimate   =     -49.51643754 Ry
     estimated scf accuracy    <       0.00020390 Ry

     total charge of GC-SCF    =      -0.00213064 e
     the Fermi energy          =      -4.47589175 eV
                        (error :       0.27310825 eV)

     iteration #  5     ecut=    20.00 Ry     beta=0.10
     RMM-DIIS diagonalization
     ethr =  1.70E-06,  avg # of iterations =  3.4

     total cpu time spent up to now is        2.3 secs

     total energy              =     -49.51485405 Ry
     Harris-Foulkes estimate   =     -49.51554760 Ry
     estimated scf accuracy    <       0.00010862 Ry

     total charge of GC-SCF    =       0.00184763 e
     the Fermi energy          =      -4.57622293 eV
                        (error :       0.17277707 eV)

     iteration #  6     ecut=    20.00 Ry     beta=0.10
     RMM-DIIS diagonalization
     ethr =  9.05E-07,  avg # of iterations =  4.4

     total cpu time spent up to now is        2.6 secs

     total energy              =     -49.51495786 Ry
     Harris-Foulkes estimate   =     -49.51530914 Ry
     estimated scf accuracy    <       0.00007258 Ry

     total charge of GC-SCF    =       0.00444724 e
     the Fermi energy          =      -4.51963185 eV
                        (error :       0.22936815 eV)

     iteration #  7     ecut=    20.00 Ry     beta=0.10
     RMM-DIIS diagonalization
     ethr =  6.05E-07,  avg # of iterations =  2.9

     total cpu time spent up to now is        2.8 secs

     total energy              =     -49.51479541 Ry
     Harris-Foulkes estimate   =     -49.51485487 Ry
     estimated scf accuracy    <       0.00004290 Ry

     total charge of GC-SCF    =       0.00550169 e
     the Fermi energy          =      -4.58350547 eV
                        (error :       0.16549453 eV)

     iteration #  8     ecut=    20.00 Ry     beta=0.10
     RMM-DIIS diagonalization
     ethr =  3.58E-07,  avg # of iterations =  3.8

     total cpu time spent up to now is        3.0 secs

     total energy              =     -49.51456304 Ry
     Harris-Foulkes estimate   =     -49.51479075 Ry
     estimated scf accuracy    <       0.00002130 Ry

     total charge of GC-SCF    =       0.01215868 e
     the Fermi energy          =      -4.61107412 eV
                        (error :       0.13792588 eV)

     iteration #  9     ecut=    20.00 Ry     beta=0.10
     RMM-DIIS diagonalization
     ethr =  1.78E-07,  avg # of iterations =  5.2

     total cpu time spent up to now is        3.3 secs

     total energy              =     -49.51472266 Ry
     Harris-Foulkes estimate   =     -49.51455695 Ry
     estimated scf accuracy    <       0.00000966 Ry

     total charge of GC-SCF    =       0.01275175 e
     the Fermi energy          =      -4.68092429 eV
                        (error :       0.06807571 eV)

     iteration # 10     ecut=    20.00 Ry     beta=0.10
     RMM-DIIS diagonalization
     ethr =  8.06E-08,  avg # of iterations =  3.3

     total cpu time spent up to now is        3.5 secs

     total energy              =     -49.51539442 Ry
     Harris-Foulkes estimate   =     -49.51473238 Ry
     estimated scf accuracy    <       0.00000396 Ry

     total charge of GC-SCF    =       0.01783762 e
     the Fermi energy          =      -4.67786287 eV
                        (error :       0.07113713 eV)

     iteration # 11     ecut=    20.00 Ry     beta=0.10
     RMM-DIIS diagonalization
     ethr =  3.31E-08,  avg # of iterations =  4.5

     total cpu time spent up to now is        3.8 secs

     total energy              =     -49.51588756 Ry
     Harris-Foulkes estimate   =     -49.51539121 Ry
     estimated scf accuracy    <       0.00000046 Ry

     total charge of GC-SCF    =       0.01910775 e
     the Fermi energy          =      -4.72838377 eV
                        (error :       0.02061623 eV)

     iteration # 12     ecut=    20.00 Ry     beta=0.10
     RMM-DIIS diagonalization
     ethr =  3.82E-09,  avg # of iterations =  7.0

     total cpu time spent up to now is        4.2 secs

     total energy              =     -49.51655417 Ry
     Harris-Foulkes estimate   =     -49.51589065 Ry
     estimated scf accuracy    <       0.00000089 Ry

     total charge of GC-SCF    =       0.02014377 e
     the Fermi energy          =      -4.72788930 eV
                        (error :       0.02111070 eV)

     iteration # 13     ecut=    20.00 Ry     beta=0.10
     RMM-DIIS diagonalization
     ethr =  3.82E-09,  avg # of iterations =  5.7

     total cpu time spent up to now is        4.6 secs

     total energy              =     -49.51655255 Ry
     Harris-Foulkes estimate   =     -49.51655543 Ry
     estimated scf accuracy    <       0.00000029 Ry

     total charge of GC-SCF    =       0.02014655 e
     the Fermi energy          =      -4.73703804 eV
                        (error :       0.01196196 eV)

     iteration # 14     ecut=    20.00 Ry     beta=0.10
     RMM-DIIS diagonalization
     ethr =  2.42E-09,  avg # of iterations =  3.6

     total cpu time spent up to now is        4.8 secs

     total energy              =     -49.51674713 Ry
     Harris-Foulkes estimate   =     -49.51655282 Ry
     estimated scf accuracy    <       0.00000009 Ry

     total charge of GC-SCF    =       0.02061505 e
     the Fermi energy          =      -4.73605756 eV
                        (error :       0.01294244 eV)

     iteration # 15     ecut=    20.00 Ry     beta=0.10
     RMM-DIIS diagonalization
     ethr =  7.66E-10,  avg # of iterations =  7.4

     total cpu time spent up to now is        5.2 secs

     total energy              =     -49.51703319 Ry
     Harris-Foulkes estimate   =     -49.51674834 Ry
     estimated scf accuracy    <       0.00000047 Ry

     total charge of GC-SCF    =       0.02146761 e
     the Fermi energy          =      -4.73730828 eV
                        (error :       0.01169172 eV)

     iteration # 16     ecut=    20.00 Ry     beta=0.10
     RMM-DIIS diagonalization
     ethr =  7.66E-10,  avg # of iterations =  6.6

     total cpu time spent up to now is        5.6 secs

     End of self-consistent calculation

          k = 0.0833 0.0833 0.0000 (  3999 PWs)   bands (ev):

   -11.8464  -8.2709  -8.2709  -6.5626  -6.5626  -5.7924  -4.7854  -3.9130
    -2.6185  -2.5597

          k = 0.0833 0.2500 0.0000 (  4011 PWs)   bands (ev):

   -11.5982  -9.4035  -8.0267  -6.3349  -5.8843  -5.5549  -4.9911  -4.4313
    -3.4886  -2.3289

          k = 0.0833 0.4167 0.0000 (  4016 PWs)   bands (ev):

   -11.1040 -10.3685  -7.5411  -6.8214  -5.8834  -5.2276  -5.0825  -4.3840
    -3.1564  -1.8709

          k = 0.2500 0.2500 0.0000 (  4007 PWs)   bands (ev):

   -11.3504  -9.1591  -9.1591  -7.0046  -5.3176  -4.7691  -4.7691  -3.4564
    -3.2547  -3.2547

          k = 0.2500 0.4167 0.0000 (  4019 PWs)   bands (ev):

   -10.8569 -10.1225  -8.6727  -7.9506  -4.8460  -4.3392  -4.1484  -3.7569
    -2.9568  -2.7892

          k = 0.4167 0.4167 0.0000 (  4005 PWs)   bands (ev):

   -10.3648  -9.6331  -9.6331  -8.9051  -4.3752  -3.6796  -3.6796  -2.9866
    -2.6090  -2.5453

     the Fermi energy is    -4.7469 ev

!    total energy              =     -49.51701256 Ry
     Harris-Foulkes estimate   =     -49.51703357 Ry
     estimated scf accuracy    <       0.00000002 Ry

     total charge of GC-SCF    =       0.02185158 e

     The total energy is the sum of the following terms:

     one-electron contribution =    -319.72970570 Ry
     hartree contribution      =     160.20136460 Ry
     xc contribution           =     -39.21286937 Ry
     ewald contribution        =     149.23211567 Ry
     smearing contrib. (-TS)   =      -0.00029056 Ry
     pot.stat. contrib. (-muN) =      -0.00762719 Ry

     convergence has been achieved in  16 iterations

     Forces acting on atoms (cartesian axes, Ry/au):

     atom    1 type  1   force =     0.00000000    0.00000000    0.00001463
     atom    2 type  1   force =     0.00000000    0.00000000    0.00001460
     atom    3 type  1   force =     0.00000000    0.00000000    0.00001460
     atom    4 type  1   force =     0.00000000    0.00000000    0.00001466

     Total force =     0.000029     Total SCF correction =     0.000537
     SCF correction compared to forces is large: reduce conv_thr to get better values

     Writing output data file Al001_bc3_GCSCF_vp05.save

     init_run     :      0.48s CPU      0.49s WALL (       1 calls)
     electrons    :      5.02s CPU      5.09s WALL (       1 calls)
     forces       :      0.18s CPU      0.19s WALL (       1 calls)

     Called by init_run:
     wfcinit      :      0.10s CPU      0.11s WALL (       1 calls)
     potinit      :      0.08s CPU      0.09s WALL (       1 calls)

     Called by electrons:
     c_bands      :      3.88s CPU      3.92s WALL (      16 calls)
     sum_band     :      0.58s CPU      0.59s WALL (      16 calls)
     v_of_rho     :      0.40s CPU      0.40s WALL (      17 calls)
     newd         :      0.11s CPU      0.11s WALL (      17 calls)
     mix_rho      :      0.06s CPU      0.06s WALL (      16 calls)

     Called by c_bands:
     init_us_2    :      0.07s CPU      0.07s WALL (     204 calls)
     crmmdiagg    :      2.71s CPU      2.74s WALL (     130 calls)
     wfcrot       :      1.17s CPU      1.17s WALL (     130 calls)
     gsorth       :      0.05s CPU      0.06s WALL (      96 calls)

     Called by sum_band:
     sum_band:bec :      0.00s CPU      0.00s WALL (      96 calls)
     addusdens    :      0.10s CPU      0.11s WALL (      16 calls)

     Called by *rmmdiagg:
     h_psi        :      3.31s CPU      3.31s WALL (     551 calls)
     s_psi        :      0.09s CPU      0.09s WALL (     551 calls)
     cdiaghg      :      0.01s CPU      0.01s WALL (     130 calls)

     Called by h_psi:
     h_psi:pot    :      3.28s CPU      3.29s WALL (     551 calls)
     h_psi:calbec :      0.10s CPU      0.11s WALL (     551 calls)
     vloc_psi     :      3.10s CPU      3.10s WALL (     551 calls)
     add_vuspsi   :      0.08s CPU      0.09s WALL (     551 calls)

     General routines
     calbec       :      0.12s CPU      0.13s WALL (     671 calls)
     fft          :      0.16s CPU      0.15s WALL (     231 calls)
     fftw         :      3.11s CPU      3.10s WALL (    9580 calls)
     davcio       :      0.00s CPU      0.00s WALL (       6 calls)

     Parallel routines
     fft_scatter  :      0.85s CPU      0.76s WALL (    9811 calls)

     PWSCF        :     5.77s CPU         5.93s WALL


   This run was terminated on:  17:29:16  11Jan2021            

=------------------------------------------------------------------------------=
   JOB DONE.
=------------------------------------------------------------------------------=
