
     Program PWSCF v.6.1 starts on 11Jan2021 at 17:29:17 

     This program is part of the open-source Quantum ESPRESSO suite
     for quantum simulation of materials; please cite
         "P. Giannozzi et al., J. Phys.:Condens. Matter 21 395502 (2009);
          URL http://www.quantum-espresso.org", 
     in publications or presentations arising from this work. More details at
     http://www.quantum-espresso.org/quote

     Parallel version (MPI), running on     4 processors
     R & G space division:  proc/nbgrp/npool/nimage =       4
     Waiting for input...
     Reading input from standard input

     Current dimensions of program PWSCF are:
     Max number of different atomic species (ntypx) = 10
     Max number of k-points (npk) =  40000
     Max angular momentum in pseudopotentials (lmaxx) =  3
     Message from routine iosys:
     mixing_mode=plain is ignored, 'TF' is adopted
     Message from routine iosys:
     accurate eigenvalues are required for all states: diago_full_acc=.TRUE.
     Message from routine iosys:
     eigenvalues have to be converged: diago_rmm_conv=.TRUE.

     Subspace diagonalization in iterative solution of the eigenvalue problem:
     a serial algorithm will be used

     Found symmetry operation: I + ( -0.5000  0.0000  0.0000)
     This is a supercell, fractional translations are disabled

     Parallelization info
     --------------------
     sticks:   dense  smooth     PW     G-vecs:    dense   smooth      PW
     Min         187     187     54                 8037     8037    1261
     Max         188     188     56                 8044     8044    1262
     Sum         749     749    221                32157    32157    5047



     bravais-lattice index     =            0
     lattice parameter (alat)  =      10.8223  a.u.
     unit-cell volume          =    2655.9321 (a.u.)^3
     number of atoms/cell      =            4
     number of atomic types    =            1
     number of electrons       =        12.00
     number of Kohn-Sham states=           10
     kinetic-energy cutoff     =      20.0000  Ry
     charge density cutoff     =      80.0000  Ry
     convergence threshold     =      1.0E-06
     mixing beta               =       0.1000
     number of iterations used =            8  TF        mixing
     Exchange-correlation      =  SLA  PW   PBE  PBE ( 1  4  3  4 0 0)

     Effective Screening Medium Method
     =================================
     Boundary Conditions: Vacuum-Slab-Metal
     total charge in unit cell        =   0.0000
     grid points for fit at edges     =        4 


     >>>>> Grand-Canonical SCF is activated <<<<<
     Initial Total Charge  =     0.000000 e
     Target Fermi Energy   =    -3.749000 eV
     Thr. of Fermi Energy  =     0.010000 eV
     Wave-shift of Kerker  =     0.400000 bohr^-1
     Wave-shift of Hartree =     1.500000 bohr^-1
     Mixing Rate of Fermi  =     0.050000

     celldm(1)=  10.822273  celldm(2)=   0.000000  celldm(3)=   0.000000
     celldm(4)=   0.000000  celldm(5)=   0.000000  celldm(6)=   0.000000

     crystal axes: (cart. coord. in units of alat)
               a(1) = (   1.000000   0.000000   0.000000 )  
               a(2) = (   0.000000   1.000000   0.000000 )  
               a(3) = (   0.000000   0.000000   2.095374 )  

     reciprocal axes: (cart. coord. in units 2 pi/alat)
               b(1) = (  1.000000  0.000000  0.000000 )  
               b(2) = (  0.000000  1.000000  0.000000 )  
               b(3) = (  0.000000  0.000000  0.477242 )  


     PseudoPot. # 1 for Al read from file:
     /home1/gler/share/qe-6.1-rism/pseudo/Al.pbe-n-van.UPF
     MD5 check sum: b11ded24487aef5bc42d5c7a2e22a7b6
     Pseudo is Ultrasoft + core correction, Zval =  3.0
     Generated by new atomic code, or converted to UPF format
     Using radial grid of  893 points,  2 beta functions with: 
                l(1) =   0
                l(2) =   1
     Q(r) pseudized with  8 coefficients,  rinner =    0.900   0.900   0.900


     atomic species   valence    mass     pseudopotential
        Al             3.00    26.98154     Al( 1.00)

      8 Sym. Ops. (no inversion) found



   Cartesian axes

     site n.     atom                  positions (alat units)
         1           Al  tau(   1) = (   0.0000000   0.0000000   0.0000000  )
         2           Al  tau(   2) = (   0.5000000   0.0000000   0.0000000  )
         3           Al  tau(   3) = (   0.0000000   0.5000000   0.0000000  )
         4           Al  tau(   4) = (   0.5000000   0.5000000   0.0000000  )

     number of k points=     6  Methfessel-Paxton smearing, width (Ry)=  0.0300
                       cart. coord. in units 2pi/alat
        k(    1) = (   0.0833333   0.0833333   0.0000000), wk =   0.2222222
        k(    2) = (   0.0833333   0.2500000   0.0000000), wk =   0.4444444
        k(    3) = (   0.0833333   0.4166667   0.0000000), wk =   0.4444444
        k(    4) = (   0.2500000   0.2500000   0.0000000), wk =   0.2222222
        k(    5) = (   0.2500000   0.4166667   0.0000000), wk =   0.4444444
        k(    6) = (   0.4166667   0.4166667   0.0000000), wk =   0.2222222

     Dense  grid:    32157 G-vectors     FFT dimensions: (  32,  32,  72)

     Estimated max dynamical RAM per process >       8.41MB

     Estimated total allocated dynamical RAM >      33.64MB

     Check: negative/imaginary core charge=   -0.000012    0.000000

     Initial potential from superposition of free atoms
     Check: negative starting charge=   -0.000169

     starting charge   11.99014, renormalised to   12.00000

     negative rho (up, down):  1.687E-04 0.000E+00
     Starting wfc are   16 randomized atomic wfcs

     total cpu time spent up to now is        0.5 secs

     per-process dynamical memory:     6.6 Mb

     Self-consistent Calculation

     iteration #  1     ecut=    20.00 Ry     beta=0.10
     RMM-DIIS diagonalization
     ethr =  1.00E-05,  avg # of iterations =  8.5

     negative rho (up, down):  8.566E-05 0.000E+00

     total cpu time spent up to now is        1.2 secs

     total energy              =     -49.55980624 Ry
     Harris-Foulkes estimate   =     -49.56876818 Ry
     estimated scf accuracy    <       0.02573817 Ry

     total charge of GC-SCF    =      -0.00523084 e
     the Fermi energy          =      -5.11069942 eV
                        (error :       1.36169942 eV)

     iteration #  2     ecut=    20.00 Ry     beta=0.10
     RMM-DIIS diagonalization
     ethr =  1.00E-05,  avg # of iterations =  2.7

     total cpu time spent up to now is        1.4 secs

     total energy              =     -49.49960107 Ry
     Harris-Foulkes estimate   =     -49.55695647 Ry
     estimated scf accuracy    <       0.02094847 Ry

     total charge of GC-SCF    =      -0.04894718 e
     the Fermi energy          =      -4.91023365 eV
                        (error :       1.16123365 eV)

     iteration #  3     ecut=    20.00 Ry     beta=0.10
     RMM-DIIS diagonalization
     ethr =  1.00E-05,  avg # of iterations =  6.3

     total cpu time spent up to now is        1.8 secs

     total energy              =     -49.51563480 Ry
     Harris-Foulkes estimate   =     -49.52070734 Ry
     estimated scf accuracy    <       0.00071749 Ry

     total charge of GC-SCF    =      -0.03678461 e
     the Fermi energy          =      -3.20801518 eV
                        (error :       0.54098482 eV)

     iteration #  4     ecut=    20.00 Ry     beta=0.10
     RMM-DIIS diagonalization
     ethr =  5.96E-06,  avg # of iterations =  3.8

     total cpu time spent up to now is        2.1 secs

     total energy              =     -49.51552094 Ry
     Harris-Foulkes estimate   =     -49.51612844 Ry
     estimated scf accuracy    <       0.00031007 Ry

     total charge of GC-SCF    =      -0.03632851 e
     the Fermi energy          =      -3.65240483 eV
                        (error :       0.09659517 eV)

     iteration #  5     ecut=    20.00 Ry     beta=0.10
     RMM-DIIS diagonalization
     ethr =  2.58E-06,  avg # of iterations =  3.4

     total cpu time spent up to now is        2.4 secs

     total energy              =     -49.51501627 Ry
     Harris-Foulkes estimate   =     -49.51564009 Ry
     estimated scf accuracy    <       0.00014461 Ry

     total charge of GC-SCF    =      -0.03591483 e
     the Fermi energy          =      -3.64952023 eV
                        (error :       0.09947977 eV)

     iteration #  6     ecut=    20.00 Ry     beta=0.10
     RMM-DIIS diagonalization
     ethr =  1.20E-06,  avg # of iterations =  4.4

     total cpu time spent up to now is        2.7 secs

     total energy              =     -49.51521472 Ry
     Harris-Foulkes estimate   =     -49.51570293 Ry
     estimated scf accuracy    <       0.00011096 Ry

     total charge of GC-SCF    =      -0.03341404 e
     the Fermi energy          =      -3.53390304 eV
                        (error :       0.21509696 eV)

     iteration #  7     ecut=    20.00 Ry     beta=0.10
     RMM-DIIS diagonalization
     ethr =  9.22E-07,  avg # of iterations =  3.2

     total cpu time spent up to now is        2.9 secs

     total energy              =     -49.51496654 Ry
     Harris-Foulkes estimate   =     -49.51512061 Ry
     estimated scf accuracy    <       0.00005412 Ry

     total charge of GC-SCF    =      -0.03236476 e
     the Fermi energy          =      -3.61046540 eV
                        (error :       0.13853460 eV)

     iteration #  8     ecut=    20.00 Ry     beta=0.10
     RMM-DIIS diagonalization
     ethr =  4.50E-07,  avg # of iterations =  4.0

     total cpu time spent up to now is        3.1 secs

     total energy              =     -49.51477247 Ry
     Harris-Foulkes estimate   =     -49.51499923 Ry
     estimated scf accuracy    <       0.00001621 Ry

     total charge of GC-SCF    =      -0.02836060 e
     the Fermi energy          =      -3.63647902 eV
                        (error :       0.11252098 eV)

     iteration #  9     ecut=    20.00 Ry     beta=0.10
     RMM-DIIS diagonalization
     ethr =  1.35E-07,  avg # of iterations =  4.8

     total cpu time spent up to now is        3.4 secs

     total energy              =     -49.51499190 Ry
     Harris-Foulkes estimate   =     -49.51476985 Ry
     estimated scf accuracy    <       0.00000582 Ry

     total charge of GC-SCF    =      -0.02753631 e
     the Fermi energy          =      -3.70752507 eV
                        (error :       0.04147493 eV)

     iteration # 10     ecut=    20.00 Ry     beta=0.10
     RMM-DIIS diagonalization
     ethr =  4.84E-08,  avg # of iterations =  2.8

     total cpu time spent up to now is        3.6 secs

     total energy              =     -49.51556048 Ry
     Harris-Foulkes estimate   =     -49.51499161 Ry
     estimated scf accuracy    <       0.00000422 Ry

     total charge of GC-SCF    =      -0.02521851 e
     the Fermi energy          =      -3.71387586 eV
                        (error :       0.03512414 eV)

     iteration # 11     ecut=    20.00 Ry     beta=0.10
     RMM-DIIS diagonalization
     ethr =  3.51E-08,  avg # of iterations =  4.1

     total cpu time spent up to now is        3.9 secs

     total energy              =     -49.51591480 Ry
     Harris-Foulkes estimate   =     -49.51556332 Ry
     estimated scf accuracy    <       0.00000030 Ry

     total charge of GC-SCF    =      -0.02454206 e
     the Fermi energy          =      -3.73062251 eV
                        (error :       0.01837749 eV)

     iteration # 12     ecut=    20.00 Ry     beta=0.10
     RMM-DIIS diagonalization
     ethr =  2.48E-09,  avg # of iterations =  6.6

     total cpu time spent up to now is        4.3 secs

     total energy              =     -49.51663584 Ry
     Harris-Foulkes estimate   =     -49.51591628 Ry
     estimated scf accuracy    <       0.00000052 Ry

     total charge of GC-SCF    =      -0.02344857 e
     the Fermi energy          =      -3.73055247 eV
                        (error :       0.01844753 eV)

     iteration # 13     ecut=    20.00 Ry     beta=0.10
     RMM-DIIS diagonalization
     ethr =  2.48E-09,  avg # of iterations =  5.6

     total cpu time spent up to now is        4.6 secs

     End of self-consistent calculation

          k = 0.0833 0.0833 0.0000 (  3999 PWs)   bands (ev):

   -10.8414  -7.2658  -7.2658  -5.5572  -5.5572  -4.8163  -3.7797  -2.9063
    -1.6144  -1.5781

          k = 0.0833 0.2500 0.0000 (  4011 PWs)   bands (ev):

   -10.5933  -8.3984  -7.0216  -5.3295  -4.8789  -4.5786  -3.9856  -3.4252
    -2.5099  -1.3471

          k = 0.0833 0.4167 0.0000 (  4016 PWs)   bands (ev):

   -10.0990  -9.3636  -6.5359  -5.8162  -4.8780  -4.2219  -4.1059  -3.4066
    -2.1507  -0.8887

          k = 0.2500 0.2500 0.0000 (  4007 PWs)   bands (ev):

   -10.3455  -8.1541  -8.1541  -5.9994  -4.3411  -3.7636  -3.7636  -2.4496
    -2.2758  -2.2758

          k = 0.2500 0.4167 0.0000 (  4019 PWs)   bands (ev):

    -9.8519  -9.1176  -7.6677  -6.9455  -3.8691  -3.3335  -3.1708  -2.7508
    -1.9510  -1.8098

          k = 0.4167 0.4167 0.0000 (  4005 PWs)   bands (ev):

    -9.3598  -8.6280  -8.6280  -7.9000  -3.3979  -2.7016  -2.7016  -2.0078
    -1.6028  -1.5384

     the Fermi energy is    -3.7393 ev

!    total energy              =     -49.51705796 Ry
     Harris-Foulkes estimate   =     -49.51663648 Ry
     estimated scf accuracy    <       0.00000018 Ry

     total charge of GC-SCF    =      -0.02164258 e

     The total energy is the sum of the following terms:

     one-electron contribution =    -320.61358373 Ry
     hartree contribution      =     161.08714590 Ry
     xc contribution           =     -39.22852354 Ry
     ewald contribution        =     149.23211567 Ry
     smearing contrib. (-TS)   =      -0.00017580 Ry
     pot.stat. contrib. (-muN) =       0.00596354 Ry

     convergence has been achieved in  13 iterations

     Forces acting on atoms (cartesian axes, Ry/au):

     atom    1 type  1   force =     0.00000000    0.00000000   -0.00000549
     atom    2 type  1   force =     0.00000000    0.00000000   -0.00000547
     atom    3 type  1   force =     0.00000000    0.00000000   -0.00000547
     atom    4 type  1   force =     0.00000000    0.00000000   -0.00000540

     Total force =     0.000011     Total SCF correction =     0.001031
     SCF correction compared to forces is large: reduce conv_thr to get better values

     Writing output data file Al001_bc3_GCSCF_vm05.save

     init_run     :      0.48s CPU      0.49s WALL (       1 calls)
     electrons    :      4.02s CPU      4.07s WALL (       1 calls)
     forces       :      0.18s CPU      0.19s WALL (       1 calls)

     Called by init_run:
     wfcinit      :      0.11s CPU      0.11s WALL (       1 calls)
     potinit      :      0.08s CPU      0.09s WALL (       1 calls)

     Called by electrons:
     c_bands      :      3.08s CPU      3.12s WALL (      13 calls)
     sum_band     :      0.48s CPU      0.49s WALL (      13 calls)
     v_of_rho     :      0.33s CPU      0.34s WALL (      14 calls)
     newd         :      0.09s CPU      0.09s WALL (      14 calls)
     mix_rho      :      0.04s CPU      0.05s WALL (      13 calls)

     Called by c_bands:
     init_us_2    :      0.06s CPU      0.06s WALL (     168 calls)
     crmmdiagg    :      2.18s CPU      2.20s WALL (     100 calls)
     wfcrot       :      0.92s CPU      0.93s WALL (     100 calls)
     gsorth       :      0.04s CPU      0.05s WALL (      78 calls)

     Called by sum_band:
     sum_band:bec :      0.00s CPU      0.00s WALL (      78 calls)
     addusdens    :      0.09s CPU      0.09s WALL (      13 calls)

     Called by *rmmdiagg:
     h_psi        :      2.62s CPU      2.65s WALL (     434 calls)
     s_psi        :      0.07s CPU      0.07s WALL (     434 calls)
     cdiaghg      :      0.01s CPU      0.01s WALL (     100 calls)

     Called by h_psi:
     h_psi:pot    :      2.60s CPU      2.64s WALL (     434 calls)
     h_psi:calbec :      0.08s CPU      0.08s WALL (     434 calls)
     vloc_psi     :      2.45s CPU      2.48s WALL (     434 calls)
     add_vuspsi   :      0.07s CPU      0.07s WALL (     434 calls)

     General routines
     calbec       :      0.10s CPU      0.10s WALL (     536 calls)
     fft          :      0.12s CPU      0.13s WALL (     192 calls)
     fftw         :      2.42s CPU      2.48s WALL (    7536 calls)
     davcio       :      0.00s CPU      0.00s WALL (       6 calls)

     Parallel routines
     fft_scatter  :      0.55s CPU      0.61s WALL (    7728 calls)

     PWSCF        :     4.76s CPU         4.92s WALL


   This run was terminated on:  17:29:22  11Jan2021            

=------------------------------------------------------------------------------=
   JOB DONE.
=------------------------------------------------------------------------------=
