
     Program PWSCF v.6.1 starts on  4Feb2021 at 23:11:20 

     This program is part of the open-source Quantum ESPRESSO suite
     for quantum simulation of materials; please cite
         "P. Giannozzi et al., J. Phys.:Condens. Matter 21 395502 (2009);
          URL http://www.quantum-espresso.org", 
     in publications or presentations arising from this work. More details at
     http://www.quantum-espresso.org/quote

     Parallel version (MPI & OpenMP), running on       4 processor cores
     Number of MPI processes:                 4
     Threads/MPI process:                     1
     R & G space division:  proc/nbgrp/npool/nimage =       4
     Waiting for input...
     Reading input from standard input

     Current dimensions of program PWSCF are:
     Max number of different atomic species (ntypx) = 10
     Max number of k-points (npk) =  40000
     Max angular momentum in pseudopotentials (lmaxx) =  3
     Message from routine iosys:
     mixing_mode=plain is ignored, 'TF' is adopted
     Message from routine iosys:
     accurate eigenvalues are required for all states: diago_full_acc=.TRUE.

     Subspace diagonalization in iterative solution of the eigenvalue problem:
     a serial algorithm will be used

     Found symmetry operation: I + ( -0.5000  0.0000  0.0000)
     This is a supercell, fractional translations are disabled

     Parallelization info
     --------------------
     sticks:   dense  smooth     PW     G-vecs:    dense   smooth      PW
     Min         187     187     54                 8037     8037    1261
     Max         188     188     56                 8044     8044    1262
     Sum         749     749    221                32157    32157    5047



     bravais-lattice index     =            0
     lattice parameter (alat)  =      10.8223  a.u.
     unit-cell volume          =    2655.9321 (a.u.)^3
     number of atoms/cell      =            4
     number of atomic types    =            1
     number of electrons       =        12.00
     number of Kohn-Sham states=           10
     kinetic-energy cutoff     =      20.0000  Ry
     charge density cutoff     =      80.0000  Ry
     convergence threshold     =      1.0E-06
     mixing beta               =       0.3000
     number of iterations used =            8  TF        mixing
     Exchange-correlation      =  SLA  PW   PBE  PBE ( 1  4  3  4 0 0)

     Effective Screening Medium Method
     =================================
     Boundary Conditions: Vacuum-Slab-Metal
     total charge in unit cell        =   0.0000
     grid points for fit at edges     =        4 


     >>>>> Grand-Canonical SCF is activated <<<<<
     Initial Total Charge  =     0.000000 e
     Target Fermi Energy   =    -4.249000 eV
     Thr. of Fermi Energy  =     0.010000 eV
     Wave-shift of Kerker  =     0.400000 bohr^-1
     Wave-shift of Hartree =     1.500000 bohr^-1
     Mixing Rate of Fermi  =     0.050000

     celldm(1)=  10.822273  celldm(2)=   0.000000  celldm(3)=   0.000000
     celldm(4)=   0.000000  celldm(5)=   0.000000  celldm(6)=   0.000000

     crystal axes: (cart. coord. in units of alat)
               a(1) = (   1.000000   0.000000   0.000000 )  
               a(2) = (   0.000000   1.000000   0.000000 )  
               a(3) = (   0.000000   0.000000   2.095374 )  

     reciprocal axes: (cart. coord. in units 2 pi/alat)
               b(1) = (  1.000000  0.000000  0.000000 )  
               b(2) = (  0.000000  1.000000  0.000000 )  
               b(3) = (  0.000000  0.000000  0.477242 )  


     PseudoPot. # 1 for Al read from file:
     /Users/otani/Program/q-e/git-worktrees/qe-6.1-rism/pseudo/Al.pbe-n-van.UPF
     MD5 check sum: cbc97ad259b400557db688b98a6ada97
     Pseudo is Ultrasoft + core correction, Zval =  3.0
     Generated by new atomic code, or converted to UPF format
     Using radial grid of  893 points,  2 beta functions with: 
                l(1) =   0
                l(2) =   1
     Q(r) pseudized with  8 coefficients,  rinner =    0.900   0.900   0.900


     atomic species   valence    mass     pseudopotential
        Al             3.00    26.98154     Al( 1.00)

      8 Sym. Ops. (no inversion) found



   Cartesian axes

     site n.     atom                  positions (alat units)
         1           Al  tau(   1) = (   0.0000000   0.0000000   0.0000000  )
         2           Al  tau(   2) = (   0.5000000   0.0000000   0.0000000  )
         3           Al  tau(   3) = (   0.0000000   0.5000000   0.0000000  )
         4           Al  tau(   4) = (   0.5000000   0.5000000   0.0000000  )

     number of k points=     6  Methfessel-Paxton smearing, width (Ry)=  0.0300
                       cart. coord. in units 2pi/alat
        k(    1) = (   0.0833333   0.0833333   0.0000000), wk =   0.2222222
        k(    2) = (   0.0833333   0.2500000   0.0000000), wk =   0.4444444
        k(    3) = (   0.0833333   0.4166667   0.0000000), wk =   0.4444444
        k(    4) = (   0.2500000   0.2500000   0.0000000), wk =   0.2222222
        k(    5) = (   0.2500000   0.4166667   0.0000000), wk =   0.4444444
        k(    6) = (   0.4166667   0.4166667   0.0000000), wk =   0.2222222

     Dense  grid:    32157 G-vectors     FFT dimensions: (  32,  32,  72)

     Estimated max dynamical RAM per process >       7.08MB

     Estimated total allocated dynamical RAM >      28.32MB

     Check: negative/imaginary core charge=   -0.000012    0.000000

     Initial potential from superposition of free atoms
     Check: negative starting charge=   -0.000169

     starting charge   11.99014, renormalised to   12.00000

     negative rho (up, down):  1.687E-04 0.000E+00
     Starting wfc are   16 randomized atomic wfcs

     total cpu time spent up to now is        0.2 secs

     Self-consistent Calculation

     iteration #  1     ecut=    20.00 Ry     beta=0.30
     Davidson diagonalization with overlap
     ethr =  1.00E-05,  avg # of iterations = 20.3

     negative rho (up, down):  9.489E-06 0.000E+00

     total cpu time spent up to now is        0.8 secs

     total energy              =     -49.53440246 Ry
     Harris-Foulkes estimate   =     -49.55299507 Ry
     estimated scf accuracy    <       0.02439498 Ry

     total charge of GC-SCF    =      -0.01031112 e
     the Fermi energy          =      -5.13563762 eV
                        (error :       0.88663762 eV)

     iteration #  2     ecut=    20.00 Ry     beta=0.30
     Davidson diagonalization with overlap
     ethr =  1.00E-05,  avg # of iterations =  4.7

     total cpu time spent up to now is        0.9 secs

     total energy              =     -49.50662493 Ry
     Harris-Foulkes estimate   =     -49.53250576 Ry
     estimated scf accuracy    <       0.01293774 Ry

     total charge of GC-SCF    =      -0.02875443 e
     the Fermi energy          =      -4.69709757 eV
                        (error :       0.44809757 eV)

     iteration #  3     ecut=    20.00 Ry     beta=0.30
     Davidson diagonalization with overlap
     ethr =  1.00E-05,  avg # of iterations =  8.2

     total cpu time spent up to now is        1.2 secs

     total energy              =     -49.51486626 Ry
     Harris-Foulkes estimate   =     -49.51776652 Ry
     estimated scf accuracy    <       0.00029992 Ry

     total charge of GC-SCF    =      -0.01589792 e
     the Fermi energy          =      -3.78160496 eV
                        (error :       0.46739504 eV)

     iteration #  4     ecut=    20.00 Ry     beta=0.30
     Davidson diagonalization with overlap
     ethr =  2.50E-06,  avg # of iterations =  6.7

     total cpu time spent up to now is        1.4 secs

     total energy              =     -49.51443073 Ry
     Harris-Foulkes estimate   =     -49.51508066 Ry
     estimated scf accuracy    <       0.00016590 Ry

     total charge of GC-SCF    =      -0.01601833 e
     the Fermi energy          =      -4.19567780 eV
                        (error :       0.05332220 eV)

     iteration #  5     ecut=    20.00 Ry     beta=0.30
     Davidson diagonalization with overlap
     ethr =  1.38E-06,  avg # of iterations =  5.2

     total cpu time spent up to now is        1.6 secs

     total energy              =     -49.51429364 Ry
     Harris-Foulkes estimate   =     -49.51466201 Ry
     estimated scf accuracy    <       0.00005857 Ry

     total charge of GC-SCF    =      -0.01229373 e
     the Fermi energy          =      -4.11965061 eV
                        (error :       0.12934939 eV)

     iteration #  6     ecut=    20.00 Ry     beta=0.30
     Davidson diagonalization with overlap
     ethr =  4.88E-07,  avg # of iterations =  9.0

     total cpu time spent up to now is        1.8 secs

     total energy              =     -49.51418407 Ry
     Harris-Foulkes estimate   =     -49.51432739 Ry
     estimated scf accuracy    <       0.00001037 Ry

     total charge of GC-SCF    =      -0.00929883 e
     the Fermi energy          =      -4.13625921 eV
                        (error :       0.11274079 eV)

     iteration #  7     ecut=    20.00 Ry     beta=0.30
     Davidson diagonalization with overlap
     ethr =  8.64E-08,  avg # of iterations =  9.7

     total cpu time spent up to now is        2.0 secs

     total energy              =     -49.51458677 Ry
     Harris-Foulkes estimate   =     -49.51416806 Ry
     estimated scf accuracy    <       0.00000436 Ry

     total charge of GC-SCF    =      -0.00505885 e
     the Fermi energy          =      -4.20123611 eV
                        (error :       0.04776389 eV)

     iteration #  8     ecut=    20.00 Ry     beta=0.30
     Davidson diagonalization with overlap
     c_bands:  1 eigenvalues not converged
     ethr =  3.64E-08,  avg # of iterations = 39.0

     total cpu time spent up to now is        2.7 secs

     total energy              =     -49.51469345 Ry
     Harris-Foulkes estimate   =     -49.51459793 Ry
     estimated scf accuracy    <       0.00000244 Ry

     total charge of GC-SCF    =      -0.00508798 e
     the Fermi energy          =      -4.22392225 eV
                        (error :       0.02507775 eV)

     iteration #  9     ecut=    20.00 Ry     beta=0.30
     Davidson diagonalization with overlap
     c_bands:  1 eigenvalues not converged
     ethr =  2.03E-08,  avg # of iterations = 34.0

     total cpu time spent up to now is        3.1 secs

     total energy              =     -49.51572060 Ry
     Harris-Foulkes estimate   =     -49.51469672 Ry
     estimated scf accuracy    <       0.00000108 Ry

     total charge of GC-SCF    =      -0.00197693 e
     the Fermi energy          =      -4.21776762 eV
                        (error :       0.03123238 eV)

     iteration # 10     ecut=    20.00 Ry     beta=0.30
     Davidson diagonalization with overlap
     c_bands:  1 eigenvalues not converged
     ethr =  8.96E-09,  avg # of iterations = 37.2

     total cpu time spent up to now is        3.9 secs

     total energy              =     -49.51594972 Ry
     Harris-Foulkes estimate   =     -49.51572412 Ry
     estimated scf accuracy    <       0.00000120 Ry

     total charge of GC-SCF    =      -0.00170225 e
     the Fermi energy          =      -4.24186388 eV
                        (error :       0.00713612 eV)

     iteration # 11     ecut=    20.00 Ry     beta=0.30
     Davidson diagonalization with overlap
     ethr =  8.96E-09,  avg # of iterations = 27.8

     total cpu time spent up to now is        4.4 secs

     End of self-consistent calculation

          k = 0.0833 0.0833 0.0000 (  3999 PWs)   bands (ev):

   -11.3416  -7.7660  -7.7660  -6.0576  -6.0576  -5.3011  -4.2803  -3.4075
    -2.1140  -2.0658

          k = 0.0833 0.2500 0.0000 (  4011 PWs)   bands (ev):

   -11.0934  -8.8986  -7.5218  -5.8299  -5.3792  -5.0634  -4.4861  -3.9260
    -2.9960  -1.8349

          k = 0.0833 0.4167 0.0000 (  4016 PWs)   bands (ev):

   -10.5992  -9.8637  -7.0362  -6.3164  -5.3785  -4.7225  -4.5909  -3.8920
    -2.6513  -1.3767

          k = 0.2500 0.2500 0.0000 (  4007 PWs)   bands (ev):

   -10.8457  -8.6543  -8.6543  -6.4997  -4.8260  -4.2641  -4.2641  -2.9508
    -2.7621  -2.7620

          k = 0.2500 0.4167 0.0000 (  4019 PWs)   bands (ev):

   -10.3520  -9.6177  -8.1679  -7.4457  -4.3543  -3.8341  -3.6564  -3.2516
    -2.4517  -2.2963

          k = 0.4167 0.4167 0.0000 (  4005 PWs)   bands (ev):

    -9.8600  -9.1282  -9.1282  -8.4002  -3.8833  -3.1874  -3.1874  -2.4940
    -2.1037  -2.1037

     the Fermi energy is    -4.2405 ev

!    total energy              =     -49.51663174 Ry
     Harris-Foulkes estimate   =     -49.51595014 Ry
     estimated scf accuracy    <       0.00000049 Ry

     total charge of GC-SCF    =      -0.00010961 e

     The total energy is the sum of the following terms:

     one-electron contribution =    -320.16651833 Ry
     hartree contribution      =     160.63918592 Ry
     xc contribution           =     -39.22122209 Ry
     ewald contribution        =     149.23211567 Ry
     smearing contrib. (-TS)   =      -0.00022714 Ry
     pot.stat. contrib. (-muN) =       0.00003423 Ry

     convergence has been achieved in  11 iterations

     Forces acting on atoms (cartesian axes, Ry/au):

     atom    1 type  1   force =     0.00000000    0.00000000    0.00000239
     atom    2 type  1   force =     0.00000000    0.00000000    0.00000182
     atom    3 type  1   force =     0.00000000    0.00000000    0.00000182
     atom    4 type  1   force =     0.00000000    0.00000000    0.00000227

     Total force =     0.000004     Total SCF correction =     0.002418
     SCF correction compared to forces is large: reduce conv_thr to get better values

     Writing output data file Al001_bc3_GCSCF_v00.save

     init_run     :      0.16s CPU      0.17s WALL (       1 calls)
     electrons    :      3.86s CPU      4.19s WALL (       1 calls)
     forces       :      0.07s CPU      0.08s WALL (       1 calls)

     Called by init_run:
     wfcinit      :      0.04s CPU      0.04s WALL (       1 calls)
     potinit      :      0.03s CPU      0.03s WALL (       1 calls)

     Called by electrons:
     c_bands      :      3.47s CPU      3.75s WALL (      11 calls)
     sum_band     :      0.21s CPU      0.23s WALL (      11 calls)
     v_of_rho     :      0.13s CPU      0.14s WALL (      12 calls)
     newd         :      0.04s CPU      0.04s WALL (      12 calls)
     mix_rho      :      0.02s CPU      0.02s WALL (      11 calls)

     Called by c_bands:
     init_us_2    :      0.02s CPU      0.02s WALL (     144 calls)
     cegterg      :      3.44s CPU      3.72s WALL (     103 calls)

     Called by sum_band:
     sum_band:bec :      0.00s CPU      0.00s WALL (      66 calls)
     addusdens    :      0.04s CPU      0.04s WALL (      11 calls)

     Called by *egterg:
     h_psi        :      2.26s CPU      2.43s WALL (    1319 calls)
     s_psi        :      0.05s CPU      0.05s WALL (    1319 calls)
     g_psi        :      0.02s CPU      0.02s WALL (    1210 calls)
     cdiaghg      :      0.35s CPU      0.39s WALL (    1309 calls)

     Called by h_psi:
     h_psi:pot    :      2.23s CPU      2.40s WALL (    1319 calls)
     h_psi:calbec :      0.13s CPU      0.14s WALL (    1319 calls)
     vloc_psi     :      2.02s CPU      2.18s WALL (    1319 calls)
     add_vuspsi   :      0.08s CPU      0.08s WALL (    1319 calls)

     General routines
     calbec       :      0.14s CPU      0.15s WALL (    1409 calls)
     fft          :      0.06s CPU      0.07s WALL (     166 calls)
     fftw         :      1.86s CPU      2.00s WALL (   11422 calls)
     davcio       :      0.00s CPU      0.00s WALL (       6 calls)

     Parallel routines
     fft_scatter  :      0.94s CPU      1.02s WALL (   11588 calls)

     PWSCF        :     4.15s CPU         4.51s WALL


   This run was terminated on:  23:11:24   4Feb2021            

=------------------------------------------------------------------------------=
   JOB DONE.
=------------------------------------------------------------------------------=
