
     Program PWSCF v.6.1 starts on  4Feb2021 at 23: 9:45 

     This program is part of the open-source Quantum ESPRESSO suite
     for quantum simulation of materials; please cite
         "P. Giannozzi et al., J. Phys.:Condens. Matter 21 395502 (2009);
          URL http://www.quantum-espresso.org", 
     in publications or presentations arising from this work. More details at
     http://www.quantum-espresso.org/quote

     Parallel version (MPI & OpenMP), running on       4 processor cores
     Number of MPI processes:                 4
     Threads/MPI process:                     1
     R & G space division:  proc/nbgrp/npool/nimage =       4
     Waiting for input...
     Reading input from standard input

     Current dimensions of program PWSCF are:
     Max number of different atomic species (ntypx) = 10
     Max number of k-points (npk) =  40000
     Max angular momentum in pseudopotentials (lmaxx) =  3

     Subspace diagonalization in iterative solution of the eigenvalue problem:
     a serial algorithm will be used

     Found symmetry operation: I + ( -0.5000  0.0000  0.0000)
     This is a supercell, fractional translations are disabled

     Parallelization info
     --------------------
     sticks:   dense  smooth     PW     G-vecs:    dense   smooth      PW
     Min         187     187     54                 8037     8037    1261
     Max         188     188     56                 8044     8044    1262
     Sum         749     749    221                32157    32157    5047



     bravais-lattice index     =            0
     lattice parameter (alat)  =      10.8223  a.u.
     unit-cell volume          =    2655.9321 (a.u.)^3
     number of atoms/cell      =            4
     number of atomic types    =            1
     number of electrons       =        12.00
     number of Kohn-Sham states=           10
     kinetic-energy cutoff     =      20.0000  Ry
     charge density cutoff     =      80.0000  Ry
     convergence threshold     =      1.0E-06
     mixing beta               =       0.3000
     number of iterations used =            8  plain     mixing
     Exchange-correlation      =  SLA  PW   PBE  PBE ( 1  4  3  4 0 0)
     nstep                     =           50


     Effective Screening Medium Method
     =================================
     Boundary Conditions: Metal-Slab-Metal
     total charge in unit cell        =   0.0000
     grid points for fit at edges     =        4 


     >>>> FCP Relaxation is activated <<<<<
     Initial Total Charge =     0.000000 e
     Target Fermi Energy  =    -0.275693 Ry
                          =    -3.751000 eV

     celldm(1)=  10.822273  celldm(2)=   0.000000  celldm(3)=   0.000000
     celldm(4)=   0.000000  celldm(5)=   0.000000  celldm(6)=   0.000000

     crystal axes: (cart. coord. in units of alat)
               a(1) = (   1.000000   0.000000   0.000000 )  
               a(2) = (   0.000000   1.000000   0.000000 )  
               a(3) = (   0.000000   0.000000   2.095374 )  

     reciprocal axes: (cart. coord. in units 2 pi/alat)
               b(1) = (  1.000000  0.000000  0.000000 )  
               b(2) = (  0.000000  1.000000  0.000000 )  
               b(3) = (  0.000000  0.000000  0.477242 )  


     PseudoPot. # 1 for Al read from file:
     /Users/otani/Program/q-e/git-worktrees/qe-6.1-rism/pseudo/Al.pbe-n-van.UPF
     MD5 check sum: cbc97ad259b400557db688b98a6ada97
     Pseudo is Ultrasoft + core correction, Zval =  3.0
     Generated by new atomic code, or converted to UPF format
     Using radial grid of  893 points,  2 beta functions with: 
                l(1) =   0
                l(2) =   1
     Q(r) pseudized with  8 coefficients,  rinner =    0.900   0.900   0.900


     atomic species   valence    mass     pseudopotential
        Al             3.00    26.98154     Al( 1.00)

     16 Sym. Ops., with inversion, found



   Cartesian axes

     site n.     atom                  positions (alat units)
         1           Al  tau(   1) = (   0.0000000   0.0000000   0.0000000  )
         2           Al  tau(   2) = (   0.5000000   0.0000000   0.0000000  )
         3           Al  tau(   3) = (   0.0000000   0.5000000   0.0000000  )
         4           Al  tau(   4) = (   0.5000000   0.5000000   0.0000000  )

     number of k points=     6  Methfessel-Paxton smearing, width (Ry)=  0.0300
                       cart. coord. in units 2pi/alat
        k(    1) = (   0.0833333   0.0833333   0.0000000), wk =   0.2222222
        k(    2) = (   0.0833333   0.2500000   0.0000000), wk =   0.4444444
        k(    3) = (   0.0833333   0.4166667   0.0000000), wk =   0.4444444
        k(    4) = (   0.2500000   0.2500000   0.0000000), wk =   0.2222222
        k(    5) = (   0.2500000   0.4166667   0.0000000), wk =   0.4444444
        k(    6) = (   0.4166667   0.4166667   0.0000000), wk =   0.2222222

     Dense  grid:    32157 G-vectors     FFT dimensions: (  32,  32,  72)

     Estimated max dynamical RAM per process >       7.08MB

     Estimated total allocated dynamical RAM >      28.32MB

     Check: negative/imaginary core charge=   -0.000012    0.000000

     Initial potential from superposition of free atoms
     Check: negative starting charge=   -0.000169

     starting charge   11.99014, renormalised to   12.00000

     negative rho (up, down):  1.687E-04 0.000E+00
     Starting wfc are   16 randomized atomic wfcs

     total cpu time spent up to now is        0.3 secs

     Self-consistent Calculation

     iteration #  1     ecut=    20.00 Ry     beta=0.30
     Davidson diagonalization with overlap
     ethr =  1.00E-02,  avg # of iterations =  2.5

     Threshold (ethr) on eigenvalues was too large:
     Diagonalizing with lowered threshold

     Davidson diagonalization with overlap
     ethr =  3.59E-04,  avg # of iterations =  4.2

     negative rho (up, down):  9.429E-05 0.000E+00

     total cpu time spent up to now is        0.6 secs

     total energy              =     -49.52104702 Ry
     Harris-Foulkes estimate   =     -49.54044966 Ry
     estimated scf accuracy    <       0.07861221 Ry

     iteration #  2     ecut=    20.00 Ry     beta=0.30
     Davidson diagonalization with overlap
     ethr =  6.55E-04,  avg # of iterations =  1.0

     negative rho (up, down):  8.703E-06 0.000E+00

     total cpu time spent up to now is        0.7 secs

     total energy              =     -49.51184710 Ry
     Harris-Foulkes estimate   =     -49.52312089 Ry
     estimated scf accuracy    <       0.02678306 Ry

     iteration #  3     ecut=    20.00 Ry     beta=0.30
     Davidson diagonalization with overlap
     ethr =  2.23E-04,  avg # of iterations =  1.3

     negative rho (up, down):  5.214E-08 0.000E+00

     total cpu time spent up to now is        0.8 secs

     total energy              =     -49.51556000 Ry
     Harris-Foulkes estimate   =     -49.51578601 Ry
     estimated scf accuracy    <       0.00073168 Ry

     iteration #  4     ecut=    20.00 Ry     beta=0.30
     Davidson diagonalization with overlap
     ethr =  6.10E-06,  avg # of iterations =  5.8

     total cpu time spent up to now is        1.0 secs

     total energy              =     -49.51665373 Ry
     Harris-Foulkes estimate   =     -49.51665428 Ry
     estimated scf accuracy    <       0.00001760 Ry

     iteration #  5     ecut=    20.00 Ry     beta=0.30
     Davidson diagonalization with overlap
     ethr =  1.47E-07,  avg # of iterations =  5.0

     total cpu time spent up to now is        1.2 secs

     total energy              =     -49.51666987 Ry
     Harris-Foulkes estimate   =     -49.51666899 Ry
     estimated scf accuracy    <       0.00000853 Ry

     iteration #  6     ecut=    20.00 Ry     beta=0.30
     Davidson diagonalization with overlap
     ethr =  7.11E-08,  avg # of iterations =  2.0

     total cpu time spent up to now is        1.3 secs

     total energy              =     -49.51666905 Ry
     Harris-Foulkes estimate   =     -49.51667092 Ry
     estimated scf accuracy    <       0.00000316 Ry

     iteration #  7     ecut=    20.00 Ry     beta=0.30
     Davidson diagonalization with overlap
     ethr =  2.63E-08,  avg # of iterations =  2.0

     total cpu time spent up to now is        1.4 secs

     End of self-consistent calculation

          k = 0.0833 0.0833 0.0000 (  3999 PWs)   bands (ev):

   -11.3517  -7.7763  -7.7762  -6.0677  -6.0677  -5.3123  -4.2904  -3.4174
    -2.1244  -2.0768

          k = 0.0833 0.2500 0.0000 (  4011 PWs)   bands (ev):

   -11.1036  -8.9088  -7.5321  -5.8399  -5.3894  -5.0746  -4.4962  -3.9360
    -3.0071  -1.8459

          k = 0.0833 0.4167 0.0000 (  4016 PWs)   bands (ev):

   -10.6093  -9.8739  -7.0464  -6.3266  -5.3885  -4.7325  -4.6021  -3.9032
    -2.6611  -1.3876

          k = 0.2500 0.2500 0.0000 (  4007 PWs)   bands (ev):

   -10.8558  -8.6645  -8.6644  -6.5098  -4.8372  -4.2742  -4.2741  -2.9607
    -2.7733  -2.7731

          k = 0.2500 0.4167 0.0000 (  4019 PWs)   bands (ev):

   -10.3622  -9.6279  -8.1780  -7.4559  -4.3655  -3.8441  -3.6676  -3.2615
    -2.4614  -2.3074

          k = 0.4167 0.4167 0.0000 (  4005 PWs)   bands (ev):

    -9.8702  -9.1384  -9.1383  -8.4104  -3.8945  -3.1986  -3.1985  -2.5046
    -2.1135  -2.0494

     the Fermi energy is    -4.2510 ev

!    total energy              =     -49.51666961 Ry
     Harris-Foulkes estimate   =     -49.51666951 Ry
     estimated scf accuracy    <       0.00000007 Ry

     The total energy is the sum of the following terms:

     one-electron contribution =    -144.99434135 Ry
     hartree contribution      =      73.05660570 Ry
     xc contribution           =     -39.22063970 Ry
     ewald contribution        =      61.64193118 Ry
     smearing contrib. (-TS)   =      -0.00022543 Ry
     pot.stat. contrib. (-muN) =      -0.00000000 Ry

     convergence has been achieved in   7 iterations

     BFGS Geometry Optimization

     number of scf cycles    =   1
     number of bfgs steps    =   0

     grand-energy   new      =     -49.5166696096 Ry

     new trust radius        =       0.1837295914 bohr
     new conv_thr            =       0.0000010000 Ry


ATOMIC_POSITIONS (angstrom)
Al       0.000000000   0.000000000   0.000000000
Al       2.863450038   0.000000000   0.000000000
Al       0.000000000   2.863450038   0.000000000
Al       2.863450038   2.863450038   0.000000000


     FCP: Total Charge =     0.000000  ->    -0.030206
     FCP: Fermi Energy =    -0.312439 Ry (   -4.250954 eV)
     FCP: Target Level =    -0.275693 Ry (   -3.751000 eV)
     FCP: Force on FCP =     0.036746 Ry (    0.499954 eV)
     FCP: Force Thr.   =     0.000735 Ry (    0.010000 eV)



     Writing output data file Al001_bc2_FCP_vp05.save
     Check: negative starting charge=   -0.000169
     NEW-OLD atomic charge density approx. for the potential

     Check: negative/imaginary core charge=   -0.000012    0.000000
     Check: negative starting charge=   -0.000169
     extrapolated charge   12.00000, renormalised to   12.03021

     total cpu time spent up to now is        1.6 secs

     Self-consistent Calculation

     iteration #  1     ecut=    20.00 Ry     beta=0.30
     Davidson diagonalization with overlap
     ethr =  1.00E-06,  avg # of iterations =  1.5

     Threshold (ethr) on eigenvalues was too large:
     Diagonalizing with lowered threshold

     Davidson diagonalization with overlap
     ethr =  5.35E-09,  avg # of iterations =  2.3

     total cpu time spent up to now is        1.8 secs

     End of self-consistent calculation

          k = 0.0833 0.0833 0.0000 (  3999 PWs)   bands (ev):

   -11.3515  -7.7760  -7.7759  -6.0675  -6.0675  -5.3118  -4.2902  -3.4173
    -2.1240  -2.0763

          k = 0.0833 0.2500 0.0000 (  4011 PWs)   bands (ev):

   -11.1033  -8.9086  -7.5318  -5.8397  -5.3892  -5.0741  -4.4960  -3.9358
    -3.0066  -1.8454

          k = 0.0833 0.4167 0.0000 (  4016 PWs)   bands (ev):

   -10.6091  -9.8737  -7.0461  -6.3264  -5.3883  -4.7323  -4.6016  -3.9027
    -2.6610  -1.3871

          k = 0.2500 0.2500 0.0000 (  4007 PWs)   bands (ev):

   -10.8556  -8.6642  -8.6642  -6.5096  -4.8367  -4.2740  -4.2739  -2.9606
    -2.7727  -2.7727

          k = 0.2500 0.4167 0.0000 (  4019 PWs)   bands (ev):

   -10.3620  -9.6276  -8.1778  -7.4557  -4.3650  -3.8439  -3.6670  -3.2614
    -2.4613  -2.3069

          k = 0.4167 0.4167 0.0000 (  4005 PWs)   bands (ev):

    -9.8699  -9.1382  -9.1381  -8.4101  -3.8940  -3.1980  -3.1980  -2.5042
    -2.1134  -2.0493

     the Fermi energy is    -4.2421 ev

!    total energy              =     -49.51732752 Ry
     Harris-Foulkes estimate   =     -49.86635194 Ry
     estimated scf accuracy    <       0.00000060 Ry

     The total energy is the sum of the following terms:

     one-electron contribution =    -145.34716422 Ry
     hartree contribution      =      73.41881407 Ry
     xc contribution           =     -39.23905992 Ry
     ewald contribution        =      61.64193118 Ry
     smearing contrib. (-TS)   =      -0.00017609 Ry
     pot.stat. contrib. (-muN) =       0.00832746 Ry

     convergence has been achieved in   1 iterations

     number of scf cycles    =   2
     number of bfgs steps    =   1

     grand-energy   old      =     -49.5166696096 Ry
     grand-energy   new      =     -49.5173275210 Ry


     WARNING: bfgs curvature condition failed, Theta= 0.814
     new trust radius        =       0.2021025506 bohr
     new conv_thr            =       0.0000000100 Ry


ATOMIC_POSITIONS (angstrom)
Al       0.000000000   0.000000000   0.000000000
Al       2.863450038   0.000000000   0.000000000
Al       0.000000000   2.863450038   0.000000000
Al       2.863450038   2.863450038   0.000000000


     FCP: Total Charge =    -0.030206  ->    -0.063432
     FCP: Fermi Energy =    -0.311788 Ry (   -4.242089 eV)
     FCP: Target Level =    -0.275693 Ry (   -3.751000 eV)
     FCP: Force on FCP =     0.036094 Ry (    0.491089 eV)
     FCP: Force Thr.   =     0.000735 Ry (    0.010000 eV)



     Writing output data file Al001_bc2_FCP_vp05.save
     Check: negative starting charge=   -0.000169
     NEW-OLD atomic charge density approx. for the potential

     Check: negative/imaginary core charge=   -0.000012    0.000000
     Check: negative starting charge=   -0.000169
     extrapolated charge   12.03021, renormalised to   12.06343

     total cpu time spent up to now is        2.0 secs

     Self-consistent Calculation

     iteration #  1     ecut=    20.00 Ry     beta=0.30
     Davidson diagonalization with overlap
     ethr =  1.00E-06,  avg # of iterations =  3.0

     total cpu time spent up to now is        2.1 secs

     total energy              =     -49.51733348 Ry
     Harris-Foulkes estimate   =     -49.90206970 Ry
     estimated scf accuracy    <       0.00014572 Ry

     iteration #  2     ecut=    20.00 Ry     beta=0.30
     Davidson diagonalization with overlap
     ethr =  1.21E-06,  avg # of iterations =  4.0

     total cpu time spent up to now is        2.3 secs

     total energy              =     -49.51774504 Ry
     Harris-Foulkes estimate   =     -49.51743762 Ry
     estimated scf accuracy    <       0.00035708 Ry

     iteration #  3     ecut=    20.00 Ry     beta=0.30
     Davidson diagonalization with overlap
     ethr =  1.21E-06,  avg # of iterations =  3.0

     total cpu time spent up to now is        2.4 secs

     total energy              =     -49.51740268 Ry
     Harris-Foulkes estimate   =     -49.51779551 Ry
     estimated scf accuracy    <       0.00134523 Ry

     iteration #  4     ecut=    20.00 Ry     beta=0.30
     Davidson diagonalization with overlap
     ethr =  1.21E-06,  avg # of iterations =  2.0

     total cpu time spent up to now is        2.6 secs

     total energy              =     -49.51745788 Ry
     Harris-Foulkes estimate   =     -49.51744669 Ry
     estimated scf accuracy    <       0.00041697 Ry

     iteration #  5     ecut=    20.00 Ry     beta=0.30
     Davidson diagonalization with overlap
     ethr =  1.21E-06,  avg # of iterations =  1.0

     total cpu time spent up to now is        2.7 secs

     total energy              =     -49.51734830 Ry
     Harris-Foulkes estimate   =     -49.51745949 Ry
     estimated scf accuracy    <       0.00043932 Ry

     iteration #  6     ecut=    20.00 Ry     beta=0.30
     Davidson diagonalization with overlap
     ethr =  1.21E-06,  avg # of iterations =  1.0

     total cpu time spent up to now is        2.8 secs

     total energy              =     -49.51728887 Ry
     Harris-Foulkes estimate   =     -49.51735897 Ry
     estimated scf accuracy    <       0.00017975 Ry

     iteration #  7     ecut=    20.00 Ry     beta=0.30
     Davidson diagonalization with overlap
     ethr =  1.21E-06,  avg # of iterations =  2.7

     total cpu time spent up to now is        2.9 secs

     total energy              =     -49.51729613 Ry
     Harris-Foulkes estimate   =     -49.51730763 Ry
     estimated scf accuracy    <       0.00002482 Ry

     iteration #  8     ecut=    20.00 Ry     beta=0.30
     Davidson diagonalization with overlap
     ethr =  2.06E-07,  avg # of iterations =  3.3

     total cpu time spent up to now is        3.0 secs

     total energy              =     -49.51731151 Ry
     Harris-Foulkes estimate   =     -49.51731149 Ry
     estimated scf accuracy    <       0.00000095 Ry

     iteration #  9     ecut=    20.00 Ry     beta=0.30
     Davidson diagonalization with overlap
     ethr =  7.88E-09,  avg # of iterations =  3.8

     total cpu time spent up to now is        3.2 secs

     total energy              =     -49.51731186 Ry
     Harris-Foulkes estimate   =     -49.51731219 Ry
     estimated scf accuracy    <       0.00000129 Ry

     iteration # 10     ecut=    20.00 Ry     beta=0.30
     Davidson diagonalization with overlap
     ethr =  7.88E-09,  avg # of iterations =  1.0

     total cpu time spent up to now is        3.3 secs

     total energy              =     -49.51731133 Ry
     Harris-Foulkes estimate   =     -49.51731189 Ry
     estimated scf accuracy    <       0.00000065 Ry

     iteration # 11     ecut=    20.00 Ry     beta=0.30
     Davidson diagonalization with overlap
     ethr =  5.41E-09,  avg # of iterations =  3.0

     total cpu time spent up to now is        3.4 secs

     total energy              =     -49.51731161 Ry
     Harris-Foulkes estimate   =     -49.51731170 Ry
     estimated scf accuracy    <       0.00000035 Ry

     iteration # 12     ecut=    20.00 Ry     beta=0.30
     Davidson diagonalization with overlap
     ethr =  2.93E-09,  avg # of iterations =  1.0

     total cpu time spent up to now is        3.5 secs

     total energy              =     -49.51731159 Ry
     Harris-Foulkes estimate   =     -49.51731161 Ry
     estimated scf accuracy    <       0.00000020 Ry

     iteration # 13     ecut=    20.00 Ry     beta=0.30
     Davidson diagonalization with overlap
     ethr =  1.68E-09,  avg # of iterations =  1.0

     total cpu time spent up to now is        3.6 secs

     total energy              =     -49.51731162 Ry
     Harris-Foulkes estimate   =     -49.51731160 Ry
     estimated scf accuracy    <       0.00000009 Ry

     iteration # 14     ecut=    20.00 Ry     beta=0.30
     Davidson diagonalization with overlap
     ethr =  7.05E-10,  avg # of iterations =  3.3

     total cpu time spent up to now is        3.8 secs

     total energy              =     -49.51731166 Ry
     Harris-Foulkes estimate   =     -49.51731169 Ry
     estimated scf accuracy    <       0.00000011 Ry

     iteration # 15     ecut=    20.00 Ry     beta=0.30
     Davidson diagonalization with overlap
     ethr =  7.05E-10,  avg # of iterations =  1.0

     total cpu time spent up to now is        3.9 secs

     total energy              =     -49.51731165 Ry
     Harris-Foulkes estimate   =     -49.51731166 Ry
     estimated scf accuracy    <       0.00000008 Ry

     iteration # 16     ecut=    20.00 Ry     beta=0.30
     Davidson diagonalization with overlap
     ethr =  6.38E-10,  avg # of iterations =  1.0

     total cpu time spent up to now is        4.0 secs

     total energy              =     -49.51731162 Ry
     Harris-Foulkes estimate   =     -49.51731165 Ry
     estimated scf accuracy    <       0.00000003 Ry

     iteration # 17     ecut=    20.00 Ry     beta=0.30
     Davidson diagonalization with overlap
     ethr =  2.81E-10,  avg # of iterations =  3.0

     total cpu time spent up to now is        4.2 secs

     total energy              =     -49.51731165 Ry
     Harris-Foulkes estimate   =     -49.51731164 Ry
     estimated scf accuracy    <       0.00000003 Ry

     iteration # 18     ecut=    20.00 Ry     beta=0.30
     Davidson diagonalization with overlap
     ethr =  2.64E-10,  avg # of iterations =  1.0

     total cpu time spent up to now is        4.3 secs

     End of self-consistent calculation

          k = 0.0833 0.0833 0.0000 (  3999 PWs)   bands (ev):

   -10.6327  -7.0569  -7.0569  -5.3480  -5.3480  -4.6357  -3.5702  -2.6957
    -1.4065  -1.3921

          k = 0.0833 0.2500 0.0000 (  4011 PWs)   bands (ev):

   -10.3845  -8.1896  -6.8127  -5.1202  -4.6697  -4.3978  -3.7763  -3.2153
    -2.3267  -1.1609

          k = 0.0833 0.4167 0.0000 (  4016 PWs)   bands (ev):

    -9.8902  -9.1547  -6.3270  -5.6071  -4.6686  -4.0124  -3.9247  -3.2247
    -1.9413  -0.7021

          k = 0.2500 0.2500 0.0000 (  4007 PWs)   bands (ev):

   -10.1367  -7.9452  -7.9452  -5.7903  -4.1601  -3.5542  -3.5542  -2.2390
    -2.0924  -2.0924

          k = 0.2500 0.4167 0.0000 (  4019 PWs)   bands (ev):

    -9.6431  -8.9087  -7.4587  -6.7365  -3.6877  -3.1239  -2.9888  -2.5408
    -1.7414  -1.6260

          k = 0.4167 0.4167 0.0000 (  4005 PWs)   bands (ev):

    -9.1510  -8.4192  -8.4192  -7.6911  -3.2161  -2.5191  -2.5191  -1.8244
    -1.3928  -1.3276

     the Fermi energy is    -3.5279 ev

!    total energy              =     -49.51731165 Ry
     Harris-Foulkes estimate   =     -49.51731165 Ry
     estimated scf accuracy    <          3.7E-09 Ry

     The total energy is the sum of the following terms:

     one-electron contribution =    -145.62710402 Ry
     hartree contribution      =      73.69385956 Ry
     xc contribution           =     -39.24336046 Ry
     ewald contribution        =      61.64193118 Ry
     smearing contrib. (-TS)   =      -0.00012559 Ry
     pot.stat. contrib. (-muN) =       0.01748767 Ry

     convergence has been achieved in  18 iterations

     number of scf cycles    =   3
     number of bfgs steps    =   2

     grand-energy   old      =     -49.5173275210 Ry
     grand-energy   new      =     -49.5173116523 Ry

     new trust radius        =       0.0631332228 bohr
     new conv_thr            =       0.0000000100 Ry


ATOMIC_POSITIONS (angstrom)
Al       0.000000000   0.000000000   0.000000000
Al       2.863450038   0.000000000   0.000000000
Al       0.000000000   2.863450038   0.000000000
Al       2.863450038   2.863450038   0.000000000


     FCP: Total Charge =    -0.063432  ->    -0.053052
     FCP: Fermi Energy =    -0.259296 Ry (   -3.527900 eV)
     FCP: Target Level =    -0.275693 Ry (   -3.751000 eV)
     FCP: Force on FCP =    -0.016398 Ry (   -0.223100 eV)
     FCP: Force Thr.   =     0.000735 Ry (    0.010000 eV)



     Writing output data file Al001_bc2_FCP_vp05.save
     Check: negative starting charge=   -0.000169
     NEW-OLD atomic charge density approx. for the potential

     Check: negative/imaginary core charge=   -0.000012    0.000000
     Check: negative starting charge=   -0.000169
     extrapolated charge   12.06343, renormalised to   12.05305

     total cpu time spent up to now is        4.4 secs

     Self-consistent Calculation

     iteration #  1     ecut=    20.00 Ry     beta=0.30
     Davidson diagonalization with overlap
     ethr =  1.00E-06,  avg # of iterations =  1.0

     Threshold (ethr) on eigenvalues was too large:
     Diagonalizing with lowered threshold

     Davidson diagonalization with overlap
     ethr =  9.44E-10,  avg # of iterations =  1.0

     total cpu time spent up to now is        4.6 secs

     total energy              =     -49.51742868 Ry
     Harris-Foulkes estimate   =     -49.39725913 Ry
     estimated scf accuracy    <       0.00000012 Ry

     iteration #  2     ecut=    20.00 Ry     beta=0.30
     Davidson diagonalization with overlap
     ethr =  9.73E-10,  avg # of iterations =  8.0

     total cpu time spent up to now is        4.9 secs

     total energy              =     -49.51744409 Ry
     Harris-Foulkes estimate   =     -49.51744346 Ry
     estimated scf accuracy    <       0.00001828 Ry

     iteration #  3     ecut=    20.00 Ry     beta=0.30
     Davidson diagonalization with overlap
     ethr =  9.73E-10,  avg # of iterations =  1.0

     total cpu time spent up to now is        5.0 secs

     total energy              =     -49.51744257 Ry
     Harris-Foulkes estimate   =     -49.51744409 Ry
     estimated scf accuracy    <       0.00001981 Ry

     iteration #  4     ecut=    20.00 Ry     beta=0.30
     Davidson diagonalization with overlap
     ethr =  9.73E-10,  avg # of iterations =  1.0

     total cpu time spent up to now is        5.2 secs

     total energy              =     -49.51744182 Ry
     Harris-Foulkes estimate   =     -49.51744259 Ry
     estimated scf accuracy    <       0.00001647 Ry

     iteration #  5     ecut=    20.00 Ry     beta=0.30
     Davidson diagonalization with overlap
     ethr =  9.73E-10,  avg # of iterations =  3.0

     total cpu time spent up to now is        5.3 secs

     total energy              =     -49.51743701 Ry
     Harris-Foulkes estimate   =     -49.51744184 Ry
     estimated scf accuracy    <       0.00001445 Ry

     iteration #  6     ecut=    20.00 Ry     beta=0.30
     Davidson diagonalization with overlap
     ethr =  9.73E-10,  avg # of iterations =  5.7

     total cpu time spent up to now is        5.6 secs

     total energy              =     -49.51743771 Ry
     Harris-Foulkes estimate   =     -49.51743775 Ry
     estimated scf accuracy    <       0.00000306 Ry

     iteration #  7     ecut=    20.00 Ry     beta=0.30
     Davidson diagonalization with overlap
     ethr =  9.73E-10,  avg # of iterations =  1.0

     total cpu time spent up to now is        5.7 secs

     total energy              =     -49.51743767 Ry
     Harris-Foulkes estimate   =     -49.51743771 Ry
     estimated scf accuracy    <       0.00000299 Ry

     iteration #  8     ecut=    20.00 Ry     beta=0.30
     Davidson diagonalization with overlap
     ethr =  9.73E-10,  avg # of iterations =  1.0

     total cpu time spent up to now is        5.8 secs

     total energy              =     -49.51743816 Ry
     Harris-Foulkes estimate   =     -49.51743768 Ry
     estimated scf accuracy    <       0.00000289 Ry

     iteration #  9     ecut=    20.00 Ry     beta=0.30
     Davidson diagonalization with overlap
     ethr =  9.73E-10,  avg # of iterations =  1.0

     total cpu time spent up to now is        6.0 secs

     total energy              =     -49.51743594 Ry
     Harris-Foulkes estimate   =     -49.51743818 Ry
     estimated scf accuracy    <       0.00000405 Ry

     iteration # 10     ecut=    20.00 Ry     beta=0.30
     Davidson diagonalization with overlap
     ethr =  9.73E-10,  avg # of iterations =  5.7

     total cpu time spent up to now is        6.2 secs

     End of self-consistent calculation

          k = 0.0833 0.0833 0.0000 (  3999 PWs)   bands (ev):

   -10.7505  -7.1748  -7.1748  -5.4659  -5.4659  -4.7465  -3.6882  -2.8140
    -1.5241  -1.5042

          k = 0.0833 0.2500 0.0000 (  4011 PWs)   bands (ev):

   -10.5023  -8.3074  -6.9306  -5.2381  -4.7876  -4.5086  -3.8942  -3.3334
    -2.4381  -1.2731

          k = 0.0833 0.4167 0.0000 (  4016 PWs)   bands (ev):

   -10.0081  -9.2726  -6.4448  -5.7250  -4.7866  -4.1304  -4.0356  -3.3358
    -2.0593  -0.8143

          k = 0.2500 0.2500 0.0000 (  4007 PWs)   bands (ev):

   -10.2546  -8.0630  -8.0630  -5.9082  -4.2709  -3.6722  -3.6722  -2.3573
    -2.2039  -2.2039

          k = 0.2500 0.4167 0.0000 (  4019 PWs)   bands (ev):

    -9.7609  -9.0266  -7.5766  -6.8544  -3.7987  -3.2419  -3.0998  -2.6590
    -1.8595  -1.7376

          k = 0.4167 0.4167 0.0000 (  4005 PWs)   bands (ev):

    -9.2689  -8.5370  -8.5370  -7.8090  -3.3272  -2.6303  -2.6303  -1.9358
    -1.5110  -1.4459

     the Fermi energy is    -3.6463 ev

!    total energy              =     -49.51743653 Ry
     Harris-Foulkes estimate   =     -49.51743654 Ry
     estimated scf accuracy    <          6.4E-09 Ry

     The total energy is the sum of the following terms:

     one-electron contribution =    -145.52457018 Ry
     hartree contribution      =      73.59046612 Ry
     xc contribution           =     -39.23975792 Ry
     ewald contribution        =      61.64193118 Ry
     smearing contrib. (-TS)   =      -0.00013191 Ry
     pot.stat. contrib. (-muN) =       0.01462618 Ry

     convergence has been achieved in  10 iterations

     number of scf cycles    =   4
     number of bfgs steps    =   3

     grand-energy   old      =     -49.5173116523 Ry
     grand-energy   new      =     -49.5174365327 Ry

     new trust radius        =       0.0557862945 bohr
     new conv_thr            =       0.0000000100 Ry


ATOMIC_POSITIONS (angstrom)
Al       0.000000000   0.000000000   0.000000000
Al       2.863450038   0.000000000   0.000000000
Al       0.000000000   2.863450038   0.000000000
Al       2.863450038   2.863450038   0.000000000


     FCP: Total Charge =    -0.053052  ->    -0.043881
     FCP: Fermi Energy =    -0.268001 Ry (   -3.646342 eV)
     FCP: Target Level =    -0.275693 Ry (   -3.751000 eV)
     FCP: Force on FCP =    -0.007692 Ry (   -0.104658 eV)
     FCP: Force Thr.   =     0.000735 Ry (    0.010000 eV)



     Writing output data file Al001_bc2_FCP_vp05.save
     Check: negative starting charge=   -0.000169
     NEW-OLD atomic charge density approx. for the potential

     Check: negative/imaginary core charge=   -0.000012    0.000000
     Check: negative starting charge=   -0.000169
     extrapolated charge   12.05305, renormalised to   12.04388

     total cpu time spent up to now is        6.4 secs

     Self-consistent Calculation

     iteration #  1     ecut=    20.00 Ry     beta=0.30
     Davidson diagonalization with overlap
     ethr =  1.00E-06,  avg # of iterations =  1.0

     Threshold (ethr) on eigenvalues was too large:
     Diagonalizing with lowered threshold

     Davidson diagonalization with overlap
     ethr =  4.43E-10,  avg # of iterations =  1.0

     total cpu time spent up to now is        6.7 secs

     total energy              =     -49.51746605 Ry
     Harris-Foulkes estimate   =     -49.41133825 Ry
     estimated scf accuracy    <       0.00000005 Ry

     iteration #  2     ecut=    20.00 Ry     beta=0.30
     Davidson diagonalization with overlap
     ethr =  4.26E-10,  avg # of iterations =  8.0

     total cpu time spent up to now is        7.0 secs

     total energy              =     -49.51747764 Ry
     Harris-Foulkes estimate   =     -49.51747729 Ry
     estimated scf accuracy    <       0.00001353 Ry

     iteration #  3     ecut=    20.00 Ry     beta=0.30
     Davidson diagonalization with overlap
     ethr =  4.26E-10,  avg # of iterations =  1.7

     total cpu time spent up to now is        7.1 secs

     total energy              =     -49.51747606 Ry
     Harris-Foulkes estimate   =     -49.51747764 Ry
     estimated scf accuracy    <       0.00001444 Ry

     iteration #  4     ecut=    20.00 Ry     beta=0.30
     Davidson diagonalization with overlap
     ethr =  4.26E-10,  avg # of iterations =  3.7

     total cpu time spent up to now is        7.3 secs

     total energy              =     -49.51747707 Ry
     Harris-Foulkes estimate   =     -49.51747611 Ry
     estimated scf accuracy    <       0.00001048 Ry

     iteration #  5     ecut=    20.00 Ry     beta=0.30
     Davidson diagonalization with overlap
     ethr =  4.26E-10,  avg # of iterations =  2.7

     total cpu time spent up to now is        7.5 secs

     total energy              =     -49.51747392 Ry
     Harris-Foulkes estimate   =     -49.51747709 Ry
     estimated scf accuracy    <       0.00001301 Ry

     iteration #  6     ecut=    20.00 Ry     beta=0.30
     Davidson diagonalization with overlap
     ethr =  4.26E-10,  avg # of iterations =  4.8

     total cpu time spent up to now is        7.7 secs

     total energy              =     -49.51747101 Ry
     Harris-Foulkes estimate   =     -49.51747418 Ry
     estimated scf accuracy    <       0.00000532 Ry

     iteration #  7     ecut=    20.00 Ry     beta=0.30
     Davidson diagonalization with overlap
     ethr =  4.26E-10,  avg # of iterations =  6.7

     total cpu time spent up to now is        7.9 secs

     total energy              =     -49.51747215 Ry
     Harris-Foulkes estimate   =     -49.51747219 Ry
     estimated scf accuracy    <       0.00000015 Ry

     iteration #  8     ecut=    20.00 Ry     beta=0.30
     Davidson diagonalization with overlap
     ethr =  4.26E-10,  avg # of iterations =  1.7

     total cpu time spent up to now is        8.0 secs

     total energy              =     -49.51747215 Ry
     Harris-Foulkes estimate   =     -49.51747215 Ry
     estimated scf accuracy    <       0.00000005 Ry

     iteration #  9     ecut=    20.00 Ry     beta=0.30
     Davidson diagonalization with overlap
     ethr =  3.85E-10,  avg # of iterations =  1.0

     total cpu time spent up to now is        8.1 secs

     total energy              =     -49.51747220 Ry
     Harris-Foulkes estimate   =     -49.51747215 Ry
     estimated scf accuracy    <       0.00000002 Ry

     iteration # 10     ecut=    20.00 Ry     beta=0.30
     Davidson diagonalization with overlap
     ethr =  1.30E-10,  avg # of iterations =  2.7

     total cpu time spent up to now is        8.3 secs

     total energy              =     -49.51747217 Ry
     Harris-Foulkes estimate   =     -49.51747221 Ry
     estimated scf accuracy    <       0.00000013 Ry

     iteration # 11     ecut=    20.00 Ry     beta=0.30
     Davidson diagonalization with overlap
     ethr =  1.30E-10,  avg # of iterations =  3.0

     total cpu time spent up to now is        8.4 secs

     total energy              =     -49.51747219 Ry
     Harris-Foulkes estimate   =     -49.51747218 Ry
     estimated scf accuracy    <       0.00000002 Ry

     iteration # 12     ecut=    20.00 Ry     beta=0.30
     Davidson diagonalization with overlap
     ethr =  1.30E-10,  avg # of iterations =  1.0

     total cpu time spent up to now is        8.5 secs

     total energy              =     -49.51747219 Ry
     Harris-Foulkes estimate   =     -49.51747219 Ry
     estimated scf accuracy    <       0.00000001 Ry

     iteration # 13     ecut=    20.00 Ry     beta=0.30
     Davidson diagonalization with overlap
     ethr =  9.86E-11,  avg # of iterations =  1.0

     total cpu time spent up to now is        8.6 secs

     total energy              =     -49.51747219 Ry
     Harris-Foulkes estimate   =     -49.51747219 Ry
     estimated scf accuracy    <       0.00000001 Ry

     iteration # 14     ecut=    20.00 Ry     beta=0.30
     Davidson diagonalization with overlap
     ethr =  9.05E-11,  avg # of iterations =  1.0

     total cpu time spent up to now is        8.7 secs

     total energy              =     -49.51747219 Ry
     Harris-Foulkes estimate   =     -49.51747219 Ry
     estimated scf accuracy    <       0.00000001 Ry

     iteration # 15     ecut=    20.00 Ry     beta=0.30
     Davidson diagonalization with overlap
     ethr =  9.05E-11,  avg # of iterations =  1.0

     total cpu time spent up to now is        8.8 secs

     total energy              =     -49.51747218 Ry
     Harris-Foulkes estimate   =     -49.51747219 Ry
     estimated scf accuracy    <       0.00000001 Ry

     iteration # 16     ecut=    20.00 Ry     beta=0.30
     Davidson diagonalization with overlap
     ethr =  8.62E-11,  avg # of iterations =  1.0

     total cpu time spent up to now is        8.9 secs

     End of self-consistent calculation

          k = 0.0833 0.0833 0.0000 (  3999 PWs)   bands (ev):

   -10.8534  -7.2777  -7.2777  -5.5689  -5.5689  -4.8433  -3.7913  -2.9173
    -1.6269  -1.6023

          k = 0.0833 0.2500 0.0000 (  4011 PWs)   bands (ev):

   -10.6052  -8.4104  -7.0335  -5.3412  -4.8906  -4.6055  -3.9973  -3.4366
    -2.5355  -1.3712

          k = 0.0833 0.4167 0.0000 (  4016 PWs)   bands (ev):

   -10.1110  -9.3755  -6.5478  -5.8280  -4.8896  -4.2335  -4.1326  -3.4329
    -2.1623  -0.9125

          k = 0.2500 0.2500 0.0000 (  4007 PWs)   bands (ev):

   -10.3575  -8.1660  -8.1660  -6.0112  -4.3679  -3.7752  -3.7752  -2.4606
    -2.3014  -2.3014

          k = 0.2500 0.4167 0.0000 (  4019 PWs)   bands (ev):

    -9.8639  -9.1295  -7.6796  -6.9573  -3.8957  -3.3450  -3.1971  -2.7621
    -1.9626  -1.8352

          k = 0.4167 0.4167 0.0000 (  4005 PWs)   bands (ev):

    -9.3718  -8.6400  -8.6400  -7.9119  -3.4243  -2.7276  -2.7276  -2.0333
    -1.6141  -1.5492

     the Fermi energy is    -3.7499 ev

!    total energy              =     -49.51747219 Ry
     Harris-Foulkes estimate   =     -49.51747218 Ry
     estimated scf accuracy    <          8.7E-10 Ry

     The total energy is the sum of the following terms:

     one-electron contribution =    -145.43291754 Ry
     hartree contribution      =      73.49800044 Ry
     xc contribution           =     -39.23644300 Ry
     ewald contribution        =      61.64193118 Ry
     smearing contrib. (-TS)   =      -0.00014097 Ry
     pot.stat. contrib. (-muN) =       0.01209769 Ry

     convergence has been achieved in  16 iterations

     bfgs converged in   5 scf cycles and   4 bfgs steps
     (criteria: energy <  1.0E-04 Ry, force <  1.0E-03 Ry/Bohr)
     (criteria: force on FCP <  1.0E-02 eV)

     End of BFGS Geometry Optimization

     Final grand-energy   =     -49.5174721864 Ry
Begin final coordinates

ATOMIC_POSITIONS (angstrom)
Al       0.000000000   0.000000000   0.000000000
Al       2.863450038   0.000000000   0.000000000
Al       0.000000000   2.863450038   0.000000000
Al       2.863450038   2.863450038   0.000000000
End final coordinates


     FCP: Total Charge =    -0.043881
     FCP: Fermi Energy =    -0.275612 Ry (   -3.749886 eV)
     FCP: Target Level =    -0.275693 Ry (   -3.751000 eV)
     FCP: Force on FCP =    -0.000082 Ry (   -0.001114 eV)
     FCP: Force Thr.   =     0.000735 Ry (    0.010000 eV)



     Writing output data file Al001_bc2_FCP_vp05.save

     init_run     :      0.21s CPU      0.23s WALL (       1 calls)
     electrons    :      7.51s CPU      8.07s WALL (       5 calls)
     update_pot   :      0.34s CPU      0.39s WALL (       4 calls)

     Called by init_run:
     wfcinit      :      0.06s CPU      0.06s WALL (       1 calls)
     potinit      :      0.03s CPU      0.03s WALL (       1 calls)

     Called by electrons:
     c_bands      :      5.30s CPU      5.70s WALL (      56 calls)
     sum_band     :      1.20s CPU      1.28s WALL (      56 calls)
     v_of_rho     :      0.72s CPU      0.76s WALL (      57 calls)
     newd         :      0.21s CPU      0.23s WALL (      57 calls)
     mix_rho      :      0.13s CPU      0.14s WALL (      56 calls)

     Called by c_bands:
     init_us_2    :      0.12s CPU      0.13s WALL (     678 calls)
     cegterg      :      5.12s CPU      5.49s WALL (     336 calls)

     Called by sum_band:
     sum_band:bec :      0.00s CPU      0.00s WALL (     336 calls)
     addusdens    :      0.21s CPU      0.23s WALL (      56 calls)

     Called by *egterg:
     h_psi        :      4.03s CPU      4.32s WALL (    1176 calls)
     s_psi        :      0.08s CPU      0.08s WALL (    1176 calls)
     g_psi        :      0.03s CPU      0.03s WALL (     834 calls)
     cdiaghg      :      0.26s CPU      0.27s WALL (    1122 calls)

     Called by h_psi:
     h_psi:pot    :      3.98s CPU      4.27s WALL (    1176 calls)
     h_psi:calbec :      0.17s CPU      0.18s WALL (    1176 calls)
     vloc_psi     :      3.71s CPU      3.98s WALL (    1176 calls)
     add_vuspsi   :      0.10s CPU      0.10s WALL (    1176 calls)

     General routines
     calbec       :      0.22s CPU      0.24s WALL (    1512 calls)
     fft          :      0.33s CPU      0.36s WALL (     752 calls)
     fftw         :      3.87s CPU      4.14s WALL (   21040 calls)
     davcio       :      0.00s CPU      0.00s WALL (       6 calls)

     Parallel routines
     fft_scatter  :      2.04s CPU      2.21s WALL (   21792 calls)

     PWSCF        :     8.24s CPU         8.94s WALL


   This run was terminated on:  23: 9:54   4Feb2021            

=------------------------------------------------------------------------------=
   JOB DONE.
=------------------------------------------------------------------------------=
