
     Program PWSCF v.6.1 starts on  4Feb2021 at 23:10:30 

     This program is part of the open-source Quantum ESPRESSO suite
     for quantum simulation of materials; please cite
         "P. Giannozzi et al., J. Phys.:Condens. Matter 21 395502 (2009);
          URL http://www.quantum-espresso.org", 
     in publications or presentations arising from this work. More details at
     http://www.quantum-espresso.org/quote

     Parallel version (MPI & OpenMP), running on       4 processor cores
     Number of MPI processes:                 4
     Threads/MPI process:                     1
     R & G space division:  proc/nbgrp/npool/nimage =       4
     Waiting for input...
     Reading input from standard input

     Current dimensions of program PWSCF are:
     Max number of different atomic species (ntypx) = 10
     Max number of k-points (npk) =  40000
     Max angular momentum in pseudopotentials (lmaxx) =  3

     Subspace diagonalization in iterative solution of the eigenvalue problem:
     a serial algorithm will be used

     Found symmetry operation: I + ( -0.5000  0.0000  0.0000)
     This is a supercell, fractional translations are disabled

     Parallelization info
     --------------------
     sticks:   dense  smooth     PW     G-vecs:    dense   smooth      PW
     Min         187     187     54                 8037     8037    1261
     Max         188     188     56                 8044     8044    1262
     Sum         749     749    221                32157    32157    5047



     bravais-lattice index     =            0
     lattice parameter (alat)  =      10.8223  a.u.
     unit-cell volume          =    2655.9321 (a.u.)^3
     number of atoms/cell      =            4
     number of atomic types    =            1
     number of electrons       =        12.00
     number of Kohn-Sham states=           10
     kinetic-energy cutoff     =      20.0000  Ry
     charge density cutoff     =      80.0000  Ry
     convergence threshold     =      1.0E-06
     mixing beta               =       0.3000
     number of iterations used =            8  plain     mixing
     Exchange-correlation      =  SLA  PW   PBE  PBE ( 1  4  3  4 0 0)
     nstep                     =           50


     Effective Screening Medium Method
     =================================
     Boundary Conditions: Vacuum-Slab-Metal
     total charge in unit cell        =   0.0000
     grid points for fit at edges     =        4 


     >>>> FCP Relaxation is activated <<<<<
     Initial Total Charge =     0.000000 e
     Target Fermi Energy  =    -0.275546 Ry
                          =    -3.749000 eV

     celldm(1)=  10.822273  celldm(2)=   0.000000  celldm(3)=   0.000000
     celldm(4)=   0.000000  celldm(5)=   0.000000  celldm(6)=   0.000000

     crystal axes: (cart. coord. in units of alat)
               a(1) = (   1.000000   0.000000   0.000000 )  
               a(2) = (   0.000000   1.000000   0.000000 )  
               a(3) = (   0.000000   0.000000   2.095374 )  

     reciprocal axes: (cart. coord. in units 2 pi/alat)
               b(1) = (  1.000000  0.000000  0.000000 )  
               b(2) = (  0.000000  1.000000  0.000000 )  
               b(3) = (  0.000000  0.000000  0.477242 )  


     PseudoPot. # 1 for Al read from file:
     /Users/otani/Program/q-e/git-worktrees/qe-6.1-rism/pseudo/Al.pbe-n-van.UPF
     MD5 check sum: cbc97ad259b400557db688b98a6ada97
     Pseudo is Ultrasoft + core correction, Zval =  3.0
     Generated by new atomic code, or converted to UPF format
     Using radial grid of  893 points,  2 beta functions with: 
                l(1) =   0
                l(2) =   1
     Q(r) pseudized with  8 coefficients,  rinner =    0.900   0.900   0.900


     atomic species   valence    mass     pseudopotential
        Al             3.00    26.98154     Al( 1.00)

      8 Sym. Ops. (no inversion) found



   Cartesian axes

     site n.     atom                  positions (alat units)
         1           Al  tau(   1) = (   0.0000000   0.0000000   0.0000000  )
         2           Al  tau(   2) = (   0.5000000   0.0000000   0.0000000  )
         3           Al  tau(   3) = (   0.0000000   0.5000000   0.0000000  )
         4           Al  tau(   4) = (   0.5000000   0.5000000   0.0000000  )

     number of k points=     6  Methfessel-Paxton smearing, width (Ry)=  0.0300
                       cart. coord. in units 2pi/alat
        k(    1) = (   0.0833333   0.0833333   0.0000000), wk =   0.2222222
        k(    2) = (   0.0833333   0.2500000   0.0000000), wk =   0.4444444
        k(    3) = (   0.0833333   0.4166667   0.0000000), wk =   0.4444444
        k(    4) = (   0.2500000   0.2500000   0.0000000), wk =   0.2222222
        k(    5) = (   0.2500000   0.4166667   0.0000000), wk =   0.4444444
        k(    6) = (   0.4166667   0.4166667   0.0000000), wk =   0.2222222

     Dense  grid:    32157 G-vectors     FFT dimensions: (  32,  32,  72)

     Estimated max dynamical RAM per process >       7.08MB

     Estimated total allocated dynamical RAM >      28.32MB

     Check: negative/imaginary core charge=   -0.000012    0.000000

     Initial potential from superposition of free atoms
     Check: negative starting charge=   -0.000169

     starting charge   11.99014, renormalised to   12.00000

     negative rho (up, down):  1.687E-04 0.000E+00
     Starting wfc are   16 randomized atomic wfcs

     total cpu time spent up to now is        0.2 secs

     Self-consistent Calculation

     iteration #  1     ecut=    20.00 Ry     beta=0.30
     Davidson diagonalization with overlap
     ethr =  1.00E-02,  avg # of iterations =  2.8

     Threshold (ethr) on eigenvalues was too large:
     Diagonalizing with lowered threshold

     Davidson diagonalization with overlap
     ethr =  1.97E-04,  avg # of iterations =  8.2

     negative rho (up, down):  9.252E-05 0.000E+00

     total cpu time spent up to now is        0.4 secs

     total energy              =     -49.52185221 Ry
     Harris-Foulkes estimate   =     -49.53872234 Ry
     estimated scf accuracy    <       0.06966459 Ry

     iteration #  2     ecut=    20.00 Ry     beta=0.30
     Davidson diagonalization with overlap
     ethr =  5.81E-04,  avg # of iterations =  1.0

     negative rho (up, down):  2.512E-06 0.000E+00

     total cpu time spent up to now is        0.5 secs

     total energy              =     -49.51167355 Ry
     Harris-Foulkes estimate   =     -49.52338214 Ry
     estimated scf accuracy    <       0.02665876 Ry

     iteration #  3     ecut=    20.00 Ry     beta=0.30
     Davidson diagonalization with overlap
     ethr =  2.22E-04,  avg # of iterations =  1.0

     total cpu time spent up to now is        0.5 secs

     total energy              =     -49.51472272 Ry
     Harris-Foulkes estimate   =     -49.51489714 Ry
     estimated scf accuracy    <       0.00050532 Ry

     iteration #  4     ecut=    20.00 Ry     beta=0.30
     Davidson diagonalization with overlap
     ethr =  4.21E-06,  avg # of iterations = 13.2

     total cpu time spent up to now is        0.7 secs

     total energy              =     -49.51656743 Ry
     Harris-Foulkes estimate   =     -49.51658424 Ry
     estimated scf accuracy    <       0.00011065 Ry

     iteration #  5     ecut=    20.00 Ry     beta=0.30
     Davidson diagonalization with overlap
     ethr =  9.22E-07,  avg # of iterations =  5.8

     total cpu time spent up to now is        0.8 secs

     total energy              =     -49.51656492 Ry
     Harris-Foulkes estimate   =     -49.51666414 Ry
     estimated scf accuracy    <       0.00017861 Ry

     iteration #  6     ecut=    20.00 Ry     beta=0.30
     Davidson diagonalization with overlap
     ethr =  9.22E-07,  avg # of iterations =  3.3

     total cpu time spent up to now is        0.9 secs

     total energy              =     -49.51661000 Ry
     Harris-Foulkes estimate   =     -49.51665136 Ry
     estimated scf accuracy    <       0.00012250 Ry

     iteration #  7     ecut=    20.00 Ry     beta=0.30
     Davidson diagonalization with overlap
     ethr =  9.22E-07,  avg # of iterations =  1.0

     total cpu time spent up to now is        1.0 secs

     End of self-consistent calculation

          k = 0.0833 0.0833 0.0000 (  3999 PWs)   bands (ev):

   -11.3498  -7.7743  -7.7743  -6.0659  -6.0659  -5.3101  -4.2885  -3.4155
    -2.1218  -2.0746

          k = 0.0833 0.2500 0.0000 (  4011 PWs)   bands (ev):

   -11.1017  -8.9069  -7.5301  -5.8381  -5.3875  -5.0724  -4.4943  -3.9342
    -3.0044  -1.8437

          k = 0.0833 0.4167 0.0000 (  4016 PWs)   bands (ev):

   -10.6074  -9.8720  -7.0444  -6.3247  -5.3867  -4.7307  -4.5999  -3.9009
    -2.6594  -1.3855

          k = 0.2500 0.2500 0.0000 (  4007 PWs)   bands (ev):

   -10.8539  -8.6625  -8.6625  -6.5079  -4.8350  -4.2723  -4.2723  -2.9587
    -2.7705  -2.7704

          k = 0.2500 0.4167 0.0000 (  4019 PWs)   bands (ev):

   -10.3603  -9.6260  -8.1761  -7.4540  -4.3633  -3.8419  -3.6652  -3.2590
    -2.4598  -2.3047

          k = 0.4167 0.4167 0.0000 (  4005 PWs)   bands (ev):

    -9.8683  -9.1365  -9.1365  -8.4085  -3.8922  -3.1962  -3.1962  -2.5022
    -2.1118  -2.0473

     the Fermi energy is    -4.2490 ev

!    total energy              =     -49.51662414 Ry
     Harris-Foulkes estimate   =     -49.51662415 Ry
     estimated scf accuracy    <       0.00000072 Ry

     The total energy is the sum of the following terms:

     one-electron contribution =    -320.17167573 Ry
     hartree contribution      =     160.64299558 Ry
     xc contribution           =     -39.21983442 Ry
     ewald contribution        =     149.23211567 Ry
     smearing contrib. (-TS)   =      -0.00022524 Ry
     pot.stat. contrib. (-muN) =      -0.00000000 Ry

     convergence has been achieved in   7 iterations

     BFGS Geometry Optimization

     number of scf cycles    =   1
     number of bfgs steps    =   0

     grand-energy   new      =     -49.5166241416 Ry

     new trust radius        =       0.1837308677 bohr
     new conv_thr            =       0.0000010000 Ry


ATOMIC_POSITIONS (angstrom)
Al       0.000000000   0.000000000   0.000000000
Al       2.863450038   0.000000000   0.000000000
Al       0.000000000   2.863450038   0.000000000
Al       2.863450038   2.863450038   0.000000000


     FCP: Total Charge =     0.000000  ->    -0.015103
     FCP: Fermi Energy =    -0.312293 Ry (   -4.248957 eV)
     FCP: Target Level =    -0.275546 Ry (   -3.749000 eV)
     FCP: Force on FCP =     0.036746 Ry (    0.499957 eV)
     FCP: Force Thr.   =     0.000735 Ry (    0.010000 eV)



     Writing output data file Al001_bc3_FCP_vp05.save
     Check: negative starting charge=   -0.000169
     NEW-OLD atomic charge density approx. for the potential

     Check: negative/imaginary core charge=   -0.000012    0.000000
     Check: negative starting charge=   -0.000169
     extrapolated charge   12.00000, renormalised to   12.01510

     total cpu time spent up to now is        1.1 secs

     Self-consistent Calculation

     iteration #  1     ecut=    20.00 Ry     beta=0.30
     Davidson diagonalization with overlap
     ethr =  1.00E-06,  avg # of iterations =  1.5

     Threshold (ethr) on eigenvalues was too large:
     Diagonalizing with lowered threshold

     Davidson diagonalization with overlap
     ethr =  7.71E-10,  avg # of iterations = 15.0

     total cpu time spent up to now is        1.3 secs

     total energy              =     -49.51693399 Ry
     Harris-Foulkes estimate   =     -49.91195272 Ry
     estimated scf accuracy    <       0.00000181 Ry

     iteration #  2     ecut=    20.00 Ry     beta=0.30
     Davidson diagonalization with overlap
     ethr =  1.51E-08,  avg # of iterations = 13.5

     total cpu time spent up to now is        1.5 secs

     total energy              =     -49.51714503 Ry
     Harris-Foulkes estimate   =     -49.51714552 Ry
     estimated scf accuracy    <       0.00055833 Ry

     iteration #  3     ecut=    20.00 Ry     beta=0.30
     Davidson diagonalization with overlap
     ethr =  1.51E-08,  avg # of iterations =  1.0

     total cpu time spent up to now is        1.6 secs

     total energy              =     -49.51711686 Ry
     Harris-Foulkes estimate   =     -49.51714503 Ry
     estimated scf accuracy    <       0.00055798 Ry

     iteration #  4     ecut=    20.00 Ry     beta=0.30
     Davidson diagonalization with overlap
     ethr =  1.51E-08,  avg # of iterations =  4.2

     total cpu time spent up to now is        1.6 secs

     total energy              =     -49.51700428 Ry
     Harris-Foulkes estimate   =     -49.51711759 Ry
     estimated scf accuracy    <       0.00048027 Ry

     iteration #  5     ecut=    20.00 Ry     beta=0.30
     Davidson diagonalization with overlap
     ethr =  1.51E-08,  avg # of iterations =  9.2

     total cpu time spent up to now is        1.8 secs

     total energy              =     -49.51703230 Ry
     Harris-Foulkes estimate   =     -49.51703279 Ry
     estimated scf accuracy    <       0.00010786 Ry

     iteration #  6     ecut=    20.00 Ry     beta=0.30
     Davidson diagonalization with overlap
     ethr =  1.51E-08,  avg # of iterations =  1.0

     total cpu time spent up to now is        1.8 secs

     total energy              =     -49.51703245 Ry
     Harris-Foulkes estimate   =     -49.51703232 Ry
     estimated scf accuracy    <       0.00010659 Ry

     iteration #  7     ecut=    20.00 Ry     beta=0.30
     Davidson diagonalization with overlap
     ethr =  1.51E-08,  avg # of iterations =  1.0

     total cpu time spent up to now is        1.9 secs

     total energy              =     -49.51698761 Ry
     Harris-Foulkes estimate   =     -49.51703246 Ry
     estimated scf accuracy    <       0.00010539 Ry

     iteration #  8     ecut=    20.00 Ry     beta=0.30
     Davidson diagonalization with overlap
     ethr =  1.51E-08,  avg # of iterations = 12.5

     total cpu time spent up to now is        2.1 secs

     total energy              =     -49.51705328 Ry
     Harris-Foulkes estimate   =     -49.51704425 Ry
     estimated scf accuracy    <       0.00003849 Ry

     iteration #  9     ecut=    20.00 Ry     beta=0.30
     Davidson diagonalization with overlap
     ethr =  1.51E-08,  avg # of iterations =  5.2

     total cpu time spent up to now is        2.2 secs

     total energy              =     -49.51701122 Ry
     Harris-Foulkes estimate   =     -49.51705596 Ry
     estimated scf accuracy    <       0.00009012 Ry

     iteration # 10     ecut=    20.00 Ry     beta=0.30
     Davidson diagonalization with overlap
     ethr =  1.51E-08,  avg # of iterations =  8.2

     total cpu time spent up to now is        2.3 secs

     total energy              =     -49.51701016 Ry
     Harris-Foulkes estimate   =     -49.51702272 Ry
     estimated scf accuracy    <       0.00000476 Ry

     iteration # 11     ecut=    20.00 Ry     beta=0.30
     Davidson diagonalization with overlap
     ethr =  1.51E-08,  avg # of iterations =  6.2

     total cpu time spent up to now is        2.4 secs

     total energy              =     -49.51701280 Ry
     Harris-Foulkes estimate   =     -49.51701396 Ry
     estimated scf accuracy    <       0.00000520 Ry

     iteration # 12     ecut=    20.00 Ry     beta=0.30
     Davidson diagonalization with overlap
     ethr =  1.51E-08,  avg # of iterations =  1.0

     total cpu time spent up to now is        2.5 secs

     total energy              =     -49.51700753 Ry
     Harris-Foulkes estimate   =     -49.51701284 Ry
     estimated scf accuracy    <       0.00000400 Ry

     iteration # 13     ecut=    20.00 Ry     beta=0.30
     Davidson diagonalization with overlap
     ethr =  1.51E-08,  avg # of iterations =  4.2

     total cpu time spent up to now is        2.6 secs

     End of self-consistent calculation

          k = 0.0833 0.0833 0.0000 (  3999 PWs)   bands (ev):

   -11.0098  -7.4342  -7.4342  -5.7257  -5.7257  -4.9803  -3.9482  -3.0749
    -1.7827  -1.7430

          k = 0.0833 0.2500 0.0000 (  4011 PWs)   bands (ev):

   -10.7617  -8.5668  -7.1901  -5.4979  -5.0473  -4.7426  -4.1541  -3.5938
    -2.6743  -1.5120

          k = 0.0833 0.4167 0.0000 (  4016 PWs)   bands (ev):

   -10.2674  -9.5320  -6.7044  -5.9846  -5.0464  -4.3904  -4.2700  -3.5708
    -2.3192  -1.0537

          k = 0.2500 0.2500 0.0000 (  4007 PWs)   bands (ev):

   -10.5139  -8.3225  -8.3225  -6.1678  -4.5052  -3.9321  -3.9321  -2.6182
    -2.4402  -2.4402

          k = 0.2500 0.4167 0.0000 (  4019 PWs)   bands (ev):

   -10.0203  -9.2859  -7.8361  -7.1139  -4.0332  -3.5019  -3.3350  -2.9191
    -2.1195  -1.9743

          k = 0.4167 0.4167 0.0000 (  4005 PWs)   bands (ev):

    -9.5282  -8.7964  -8.7964  -8.0684  -3.5621  -2.8659  -2.8659  -2.1718
    -1.7713  -1.7069

     the Fermi energy is    -3.9081 ev

!    total energy              =     -49.51701054 Ry
     Harris-Foulkes estimate   =     -49.51700899 Ry
     estimated scf accuracy    <       0.00000038 Ry

     The total energy is the sum of the following terms:

     one-electron contribution =    -320.48357661 Ry
     hartree contribution      =     160.95677571 Ry
     xc contribution           =     -39.22629802 Ry
     ewald contribution        =     149.23211567 Ry
     smearing contrib. (-TS)   =      -0.00018884 Ry
     pot.stat. contrib. (-muN) =       0.00416154 Ry

     convergence has been achieved in  13 iterations

     number of scf cycles    =   2
     number of bfgs steps    =   1

     grand-energy   old      =     -49.5166241416 Ry
     grand-energy   new      =     -49.5170105416 Ry

     new trust radius        =       0.0857283588 bohr
     new conv_thr            =       0.0000000100 Ry


ATOMIC_POSITIONS (angstrom)
Al       0.000000000   0.000000000   0.000000000
Al       2.863450038   0.000000000   0.000000000
Al       0.000000000   2.863450038   0.000000000
Al       2.863450038   2.863450038   0.000000000


     FCP: Total Charge =    -0.015103  ->    -0.022150
     FCP: Fermi Energy =    -0.287237 Ry (   -3.908061 eV)
     FCP: Target Level =    -0.275546 Ry (   -3.749000 eV)
     FCP: Force on FCP =     0.011691 Ry (    0.159061 eV)
     FCP: Force Thr.   =     0.000735 Ry (    0.010000 eV)



     Writing output data file Al001_bc3_FCP_vp05.save
     Check: negative starting charge=   -0.000169
     NEW-OLD atomic charge density approx. for the potential

     Check: negative/imaginary core charge=   -0.000012    0.000000
     Check: negative starting charge=   -0.000169
     extrapolated charge   12.01510, renormalised to   12.02215

     total cpu time spent up to now is        2.7 secs

     Self-consistent Calculation

     iteration #  1     ecut=    20.00 Ry     beta=0.30
     Davidson diagonalization with overlap
     ethr =  1.00E-06,  avg # of iterations =  1.0

     Threshold (ethr) on eigenvalues was too large:
     Diagonalizing with lowered threshold

     Davidson diagonalization with overlap
     ethr =  1.23E-08,  avg # of iterations =  4.3

     total cpu time spent up to now is        2.8 secs

     total energy              =     -49.51704661 Ry
     Harris-Foulkes estimate   =     -49.70141552 Ry
     estimated scf accuracy    <       0.00000460 Ry

     iteration #  2     ecut=    20.00 Ry     beta=0.30
     Davidson diagonalization with overlap
     ethr =  3.83E-08,  avg # of iterations =  7.2

     total cpu time spent up to now is        2.9 secs

     total energy              =     -49.51709980 Ry
     Harris-Foulkes estimate   =     -49.51707959 Ry
     estimated scf accuracy    <       0.00010777 Ry

     iteration #  3     ecut=    20.00 Ry     beta=0.30
     Davidson diagonalization with overlap
     ethr =  3.83E-08,  avg # of iterations =  4.8

     total cpu time spent up to now is        3.0 secs

     total energy              =     -49.51708955 Ry
     Harris-Foulkes estimate   =     -49.51710337 Ry
     estimated scf accuracy    <       0.00020298 Ry

     iteration #  4     ecut=    20.00 Ry     beta=0.30
     Davidson diagonalization with overlap
     ethr =  3.83E-08,  avg # of iterations =  1.0

     total cpu time spent up to now is        3.1 secs

     total energy              =     -49.51706752 Ry
     Harris-Foulkes estimate   =     -49.51708993 Ry
     estimated scf accuracy    <       0.00017349 Ry

     iteration #  5     ecut=    20.00 Ry     beta=0.30
     Davidson diagonalization with overlap
     ethr =  3.83E-08,  avg # of iterations =  4.3

     total cpu time spent up to now is        3.2 secs

     total energy              =     -49.51706975 Ry
     Harris-Foulkes estimate   =     -49.51707126 Ry
     estimated scf accuracy    <       0.00008494 Ry

     iteration #  6     ecut=    20.00 Ry     beta=0.30
     Davidson diagonalization with overlap
     ethr =  3.83E-08,  avg # of iterations =  1.0

     total cpu time spent up to now is        3.2 secs

     total energy              =     -49.51706815 Ry
     Harris-Foulkes estimate   =     -49.51706985 Ry
     estimated scf accuracy    <       0.00007993 Ry

     iteration #  7     ecut=    20.00 Ry     beta=0.30
     Davidson diagonalization with overlap
     ethr =  3.83E-08,  avg # of iterations =  1.0

     total cpu time spent up to now is        3.3 secs

     total energy              =     -49.51706867 Ry
     Harris-Foulkes estimate   =     -49.51706822 Ry
     estimated scf accuracy    <       0.00007492 Ry

     iteration #  8     ecut=    20.00 Ry     beta=0.30
     Davidson diagonalization with overlap
     ethr =  3.83E-08,  avg # of iterations =  1.0

     total cpu time spent up to now is        3.3 secs

     total energy              =     -49.51706898 Ry
     Harris-Foulkes estimate   =     -49.51706871 Ry
     estimated scf accuracy    <       0.00007602 Ry

     iteration #  9     ecut=    20.00 Ry     beta=0.30
     Davidson diagonalization with overlap
     ethr =  3.83E-08,  avg # of iterations =  1.0

     total cpu time spent up to now is        3.4 secs

     total energy              =     -49.51705660 Ry
     Harris-Foulkes estimate   =     -49.51706901 Ry
     estimated scf accuracy    <       0.00007607 Ry

     iteration # 10     ecut=    20.00 Ry     beta=0.30
     Davidson diagonalization with overlap
     ethr =  3.83E-08,  avg # of iterations =  3.5

     total cpu time spent up to now is        3.5 secs

     total energy              =     -49.51705343 Ry
     Harris-Foulkes estimate   =     -49.51706070 Ry
     estimated scf accuracy    <       0.00002026 Ry

     iteration # 11     ecut=    20.00 Ry     beta=0.30
     Davidson diagonalization with overlap
     ethr =  3.83E-08,  avg # of iterations =  5.0

     total cpu time spent up to now is        3.6 secs

     total energy              =     -49.51706428 Ry
     Harris-Foulkes estimate   =     -49.51706422 Ry
     estimated scf accuracy    <       0.00000770 Ry

     iteration # 12     ecut=    20.00 Ry     beta=0.30
     Davidson diagonalization with overlap
     ethr =  3.83E-08,  avg # of iterations =  1.0

     total cpu time spent up to now is        3.7 secs

     total energy              =     -49.51706366 Ry
     Harris-Foulkes estimate   =     -49.51706438 Ry
     estimated scf accuracy    <       0.00000697 Ry

     iteration # 13     ecut=    20.00 Ry     beta=0.30
     Davidson diagonalization with overlap
     ethr =  3.83E-08,  avg # of iterations =  1.0

     total cpu time spent up to now is        3.8 secs

     total energy              =     -49.51706335 Ry
     Harris-Foulkes estimate   =     -49.51706371 Ry
     estimated scf accuracy    <       0.00000685 Ry

     iteration # 14     ecut=    20.00 Ry     beta=0.30
     Davidson diagonalization with overlap
     ethr =  3.83E-08,  avg # of iterations =  1.0

     total cpu time spent up to now is        3.9 secs

     total energy              =     -49.51706262 Ry
     Harris-Foulkes estimate   =     -49.51706339 Ry
     estimated scf accuracy    <       0.00000765 Ry

     iteration # 15     ecut=    20.00 Ry     beta=0.30
     Davidson diagonalization with overlap
     ethr =  3.83E-08,  avg # of iterations =  1.0

     total cpu time spent up to now is        4.0 secs

     total energy              =     -49.51706067 Ry
     Harris-Foulkes estimate   =     -49.51706266 Ry
     estimated scf accuracy    <       0.00000682 Ry

     iteration # 16     ecut=    20.00 Ry     beta=0.30
     Davidson diagonalization with overlap
     ethr =  3.83E-08,  avg # of iterations =  1.0

     total cpu time spent up to now is        4.1 secs

     total energy              =     -49.51706022 Ry
     Harris-Foulkes estimate   =     -49.51706081 Ry
     estimated scf accuracy    <       0.00000396 Ry

     iteration # 17     ecut=    20.00 Ry     beta=0.30
     Davidson diagonalization with overlap
     ethr =  3.30E-08,  avg # of iterations =  1.0

     total cpu time spent up to now is        4.2 secs

     total energy              =     -49.51706402 Ry
     Harris-Foulkes estimate   =     -49.51706029 Ry
     estimated scf accuracy    <       0.00000288 Ry

     iteration # 18     ecut=    20.00 Ry     beta=0.30
     Davidson diagonalization with overlap
     ethr =  2.40E-08,  avg # of iterations =  1.0

     total cpu time spent up to now is        4.3 secs

     total energy              =     -49.51706456 Ry
     Harris-Foulkes estimate   =     -49.51706432 Ry
     estimated scf accuracy    <       0.00000712 Ry

     iteration # 19     ecut=    20.00 Ry     beta=0.30
     Davidson diagonalization with overlap
     ethr =  2.40E-08,  avg # of iterations =  1.0

     total cpu time spent up to now is        4.4 secs

     total energy              =     -49.51705677 Ry
     Harris-Foulkes estimate   =     -49.51706459 Ry
     estimated scf accuracy    <       0.00000598 Ry

     iteration # 20     ecut=    20.00 Ry     beta=0.30
     Davidson diagonalization with overlap
     ethr =  2.40E-08,  avg # of iterations =  4.5

     total cpu time spent up to now is        4.5 secs

     total energy              =     -49.51705548 Ry
     Harris-Foulkes estimate   =     -49.51706171 Ry
     estimated scf accuracy    <       0.00000594 Ry

     iteration # 21     ecut=    20.00 Ry     beta=0.30
     Davidson diagonalization with overlap
     ethr =  2.40E-08,  avg # of iterations =  4.3

     total cpu time spent up to now is        4.6 secs

     total energy              =     -49.51705810 Ry
     Harris-Foulkes estimate   =     -49.51705877 Ry
     estimated scf accuracy    <       0.00000227 Ry

     iteration # 22     ecut=    20.00 Ry     beta=0.30
     Davidson diagonalization with overlap
     ethr =  1.89E-08,  avg # of iterations =  1.0

     total cpu time spent up to now is        4.7 secs

     total energy              =     -49.51705784 Ry
     Harris-Foulkes estimate   =     -49.51705831 Ry
     estimated scf accuracy    <       0.00000056 Ry

     iteration # 23     ecut=    20.00 Ry     beta=0.30
     Davidson diagonalization with overlap
     ethr =  4.67E-09,  avg # of iterations =  3.5

     total cpu time spent up to now is        4.8 secs

     total energy              =     -49.51705740 Ry
     Harris-Foulkes estimate   =     -49.51705801 Ry
     estimated scf accuracy    <       0.00000011 Ry

     iteration # 24     ecut=    20.00 Ry     beta=0.30
     Davidson diagonalization with overlap
     ethr =  9.19E-10,  avg # of iterations =  3.5

     total cpu time spent up to now is        4.9 secs

     total energy              =     -49.51705777 Ry
     Harris-Foulkes estimate   =     -49.51705745 Ry
     estimated scf accuracy    <       0.00000050 Ry

     iteration # 25     ecut=    20.00 Ry     beta=0.30
     Davidson diagonalization with overlap
     ethr =  9.19E-10,  avg # of iterations =  1.0

     total cpu time spent up to now is        5.0 secs

     total energy              =     -49.51705711 Ry
     Harris-Foulkes estimate   =     -49.51705777 Ry
     estimated scf accuracy    <       0.00000049 Ry

     iteration # 26     ecut=    20.00 Ry     beta=0.30
     Davidson diagonalization with overlap
     ethr =  9.19E-10,  avg # of iterations =  1.0

     total cpu time spent up to now is        5.0 secs

     total energy              =     -49.51705712 Ry
     Harris-Foulkes estimate   =     -49.51705711 Ry
     estimated scf accuracy    <       0.00000057 Ry

     iteration # 27     ecut=    20.00 Ry     beta=0.30
     Davidson diagonalization with overlap
     ethr =  9.19E-10,  avg # of iterations =  1.0

     total cpu time spent up to now is        5.1 secs

     total energy              =     -49.51705739 Ry
     Harris-Foulkes estimate   =     -49.51705712 Ry
     estimated scf accuracy    <       0.00000051 Ry

     iteration # 28     ecut=    20.00 Ry     beta=0.30
     Davidson diagonalization with overlap
     ethr =  9.19E-10,  avg # of iterations =  1.0

     total cpu time spent up to now is        5.2 secs

     total energy              =     -49.51705673 Ry
     Harris-Foulkes estimate   =     -49.51705740 Ry
     estimated scf accuracy    <       0.00000073 Ry

     iteration # 29     ecut=    20.00 Ry     beta=0.30
     Davidson diagonalization with overlap
     ethr =  9.19E-10,  avg # of iterations =  2.0

     total cpu time spent up to now is        5.3 secs

     total energy              =     -49.51705680 Ry
     Harris-Foulkes estimate   =     -49.51705676 Ry
     estimated scf accuracy    <       0.00000026 Ry

     iteration # 30     ecut=    20.00 Ry     beta=0.30
     Davidson diagonalization with overlap
     ethr =  9.19E-10,  avg # of iterations =  4.7

     total cpu time spent up to now is        5.4 secs

     total energy              =     -49.51705733 Ry
     Harris-Foulkes estimate   =     -49.51705695 Ry
     estimated scf accuracy    <       0.00000008 Ry

     iteration # 31     ecut=    20.00 Ry     beta=0.30
     Davidson diagonalization with overlap
     ethr =  6.31E-10,  avg # of iterations =  3.5

     total cpu time spent up to now is        5.5 secs

     End of self-consistent calculation

          k = 0.0833 0.0833 0.0000 (  3999 PWs)   bands (ev):

   -10.8475  -7.2719  -7.2719  -5.5633  -5.5633  -4.8229  -3.7858  -2.9123
    -1.6206  -1.5846

          k = 0.0833 0.2500 0.0000 (  4011 PWs)   bands (ev):

   -10.5993  -8.4045  -7.0277  -5.3355  -4.8850  -4.5851  -3.9917  -3.4313
    -2.5164  -1.3536

          k = 0.0833 0.4167 0.0000 (  4016 PWs)   bands (ev):

   -10.1051  -9.3696  -6.5420  -5.8222  -4.8840  -4.2279  -4.1124  -3.4131
    -2.1568  -0.8952

          k = 0.2500 0.2500 0.0000 (  4007 PWs)   bands (ev):

   -10.3516  -8.1601  -8.1601  -6.0054  -4.3476  -3.7696  -3.7696  -2.4556
    -2.2823  -2.2823

          k = 0.2500 0.4167 0.0000 (  4019 PWs)   bands (ev):

    -9.8580  -9.1236  -7.6737  -6.9516  -3.8756  -3.3395  -3.1774  -2.7568
    -1.9571  -1.8164

          k = 0.4167 0.4167 0.0000 (  4005 PWs)   bands (ev):

    -9.3659  -8.6341  -8.6341  -7.9061  -3.4045  -2.7081  -2.7081  -2.0140
    -1.6088  -1.5443

     the Fermi energy is    -3.7454 ev

!    total energy              =     -49.51705741 Ry
     Harris-Foulkes estimate   =     -49.51705736 Ry
     estimated scf accuracy    <          9.1E-10 Ry

     The total energy is the sum of the following terms:

     one-electron contribution =    -320.61858437 Ry
     hartree contribution      =     161.09217585 Ry
     xc contribution           =     -39.22869316 Ry
     ewald contribution        =     149.23211567 Ry
     smearing contrib. (-TS)   =      -0.00017469 Ry
     pot.stat. contrib. (-muN) =       0.00610330 Ry

     convergence has been achieved in  31 iterations

     bfgs converged in   3 scf cycles and   2 bfgs steps
     (criteria: energy <  1.0E-04 Ry, force <  1.0E-03 Ry/Bohr)
     (criteria: force on FCP <  1.0E-02 eV)

     End of BFGS Geometry Optimization

     Final grand-energy   =     -49.5170574059 Ry
Begin final coordinates

ATOMIC_POSITIONS (angstrom)
Al       0.000000000   0.000000000   0.000000000
Al       2.863450038   0.000000000   0.000000000
Al       0.000000000   2.863450038   0.000000000
Al       2.863450038   2.863450038   0.000000000
End final coordinates


     FCP: Total Charge =    -0.022150
     FCP: Fermi Energy =    -0.275279 Ry (   -3.745356 eV)
     FCP: Target Level =    -0.275546 Ry (   -3.749000 eV)
     FCP: Force on FCP =    -0.000268 Ry (   -0.003644 eV)
     FCP: Force Thr.   =     0.000735 Ry (    0.010000 eV)



     Writing output data file Al001_bc3_FCP_vp05.save

     init_run     :      0.13s CPU      0.14s WALL (       1 calls)
     electrons    :      4.96s CPU      5.10s WALL (       3 calls)
     update_pot   :      0.13s CPU      0.15s WALL (       2 calls)

     Called by init_run:
     wfcinit      :      0.03s CPU      0.03s WALL (       1 calls)
     potinit      :      0.02s CPU      0.02s WALL (       1 calls)

     Called by electrons:
     c_bands      :      3.52s CPU      3.62s WALL (      54 calls)
     sum_band     :      0.75s CPU      0.77s WALL (      54 calls)
     v_of_rho     :      0.45s CPU      0.45s WALL (      54 calls)
     newd         :      0.13s CPU      0.14s WALL (      54 calls)
     mix_rho      :      0.11s CPU      0.12s WALL (      54 calls)

     Called by c_bands:
     init_us_2    :      0.08s CPU      0.08s WALL (     654 calls)
     cegterg      :      3.41s CPU      3.49s WALL (     324 calls)

     Called by sum_band:
     sum_band:bec :      0.00s CPU      0.00s WALL (     324 calls)
     addusdens    :      0.15s CPU      0.16s WALL (      54 calls)

     Called by *egterg:
     h_psi        :      2.54s CPU      2.60s WALL (    1494 calls)
     s_psi        :      0.06s CPU      0.06s WALL (    1494 calls)
     g_psi        :      0.02s CPU      0.02s WALL (    1164 calls)
     cdiaghg      :      0.24s CPU      0.24s WALL (    1458 calls)

     Called by h_psi:
     h_psi:pot    :      2.51s CPU      2.56s WALL (    1494 calls)
     h_psi:calbec :      0.11s CPU      0.11s WALL (    1494 calls)
     vloc_psi     :      2.32s CPU      2.37s WALL (    1494 calls)
     add_vuspsi   :      0.07s CPU      0.07s WALL (    1494 calls)

     General routines
     calbec       :      0.14s CPU      0.14s WALL (    1818 calls)
     fft          :      0.20s CPU      0.21s WALL (     710 calls)
     fftw         :      2.38s CPU      2.43s WALL (   22342 calls)
     davcio       :      0.00s CPU      0.00s WALL (       6 calls)

     Parallel routines
     fft_scatter  :      1.12s CPU      1.15s WALL (   23052 calls)

     PWSCF        :     5.29s CPU         5.50s WALL


   This run was terminated on:  23:10:36   4Feb2021            

=------------------------------------------------------------------------------=
   JOB DONE.
=------------------------------------------------------------------------------=
