
     Program PWSCF v.6.1 starts on  4Feb2021 at 23: 8:44 

     This program is part of the open-source Quantum ESPRESSO suite
     for quantum simulation of materials; please cite
         "P. Giannozzi et al., J. Phys.:Condens. Matter 21 395502 (2009);
          URL http://www.quantum-espresso.org", 
     in publications or presentations arising from this work. More details at
     http://www.quantum-espresso.org/quote

     Parallel version (MPI & OpenMP), running on       4 processor cores
     Number of MPI processes:                 4
     Threads/MPI process:                     1
     R & G space division:  proc/nbgrp/npool/nimage =       4
     Waiting for input...
     Reading input from standard input

     Current dimensions of program PWSCF are:
     Max number of different atomic species (ntypx) = 10
     Max number of k-points (npk) =  40000
     Max angular momentum in pseudopotentials (lmaxx) =  3

     Subspace diagonalization in iterative solution of the eigenvalue problem:
     a serial algorithm will be used

     Found symmetry operation: I + ( -0.5000  0.0000  0.0000)
     This is a supercell, fractional translations are disabled

     Parallelization info
     --------------------
     sticks:   dense  smooth     PW     G-vecs:    dense   smooth      PW
     Min         187     187     54                 8037     8037    1261
     Max         188     188     56                 8044     8044    1262
     Sum         749     749    221                32157    32157    5047



     bravais-lattice index     =            0
     lattice parameter (alat)  =      10.8223  a.u.
     unit-cell volume          =    2655.9321 (a.u.)^3
     number of atoms/cell      =            4
     number of atomic types    =            1
     number of electrons       =        12.00
     number of Kohn-Sham states=           10
     kinetic-energy cutoff     =      20.0000  Ry
     charge density cutoff     =      80.0000  Ry
     convergence threshold     =      1.0E-06
     mixing beta               =       0.3000
     number of iterations used =            8  plain     mixing
     Exchange-correlation      =  SLA  PW   PBE  PBE ( 1  4  3  4 0 0)

     Effective Screening Medium Method
     =================================
     Boundary Conditions: Vacuum-Slab-Vacuum
     total charge in unit cell        =   0.0000
     grid points for fit at edges     =        4 


     celldm(1)=  10.822273  celldm(2)=   0.000000  celldm(3)=   0.000000
     celldm(4)=   0.000000  celldm(5)=   0.000000  celldm(6)=   0.000000

     crystal axes: (cart. coord. in units of alat)
               a(1) = (   1.000000   0.000000   0.000000 )  
               a(2) = (   0.000000   1.000000   0.000000 )  
               a(3) = (   0.000000   0.000000   2.095374 )  

     reciprocal axes: (cart. coord. in units 2 pi/alat)
               b(1) = (  1.000000  0.000000  0.000000 )  
               b(2) = (  0.000000  1.000000  0.000000 )  
               b(3) = (  0.000000  0.000000  0.477242 )  


     PseudoPot. # 1 for Al read from file:
     /Users/otani/Program/q-e/git-worktrees/qe-6.1-rism/pseudo/Al.pbe-n-van.UPF
     MD5 check sum: cbc97ad259b400557db688b98a6ada97
     Pseudo is Ultrasoft + core correction, Zval =  3.0
     Generated by new atomic code, or converted to UPF format
     Using radial grid of  893 points,  2 beta functions with: 
                l(1) =   0
                l(2) =   1
     Q(r) pseudized with  8 coefficients,  rinner =    0.900   0.900   0.900


     atomic species   valence    mass     pseudopotential
        Al             3.00    26.98154     Al( 1.00)

     16 Sym. Ops., with inversion, found



   Cartesian axes

     site n.     atom                  positions (alat units)
         1           Al  tau(   1) = (   0.0000000   0.0000000   0.0000000  )
         2           Al  tau(   2) = (   0.5000000   0.0000000   0.0000000  )
         3           Al  tau(   3) = (   0.0000000   0.5000000   0.0000000  )
         4           Al  tau(   4) = (   0.5000000   0.5000000   0.0000000  )

     number of k points=     6  Methfessel-Paxton smearing, width (Ry)=  0.0300
                       cart. coord. in units 2pi/alat
        k(    1) = (   0.0833333   0.0833333   0.0000000), wk =   0.2222222
        k(    2) = (   0.0833333   0.2500000   0.0000000), wk =   0.4444444
        k(    3) = (   0.0833333   0.4166667   0.0000000), wk =   0.4444444
        k(    4) = (   0.2500000   0.2500000   0.0000000), wk =   0.2222222
        k(    5) = (   0.2500000   0.4166667   0.0000000), wk =   0.4444444
        k(    6) = (   0.4166667   0.4166667   0.0000000), wk =   0.2222222

     Dense  grid:    32157 G-vectors     FFT dimensions: (  32,  32,  72)

     Estimated max dynamical RAM per process >       7.08MB

     Estimated total allocated dynamical RAM >      28.32MB

     Check: negative/imaginary core charge=   -0.000012    0.000000

     Initial potential from superposition of free atoms
     Check: negative starting charge=   -0.000169

     starting charge   11.99014, renormalised to   12.00000

     negative rho (up, down):  1.687E-04 0.000E+00
     Starting wfc are   16 randomized atomic wfcs

     total cpu time spent up to now is        0.2 secs

     Self-consistent Calculation

     iteration #  1     ecut=    20.00 Ry     beta=0.30
     Davidson diagonalization with overlap
     ethr =  1.00E-02,  avg # of iterations =  2.7

     Threshold (ethr) on eigenvalues was too large:
     Diagonalizing with lowered threshold

     Davidson diagonalization with overlap
     ethr =  3.63E-04,  avg # of iterations =  4.2

     negative rho (up, down):  9.342E-05 0.000E+00

     total cpu time spent up to now is        0.3 secs

     total energy              =     -49.52114249 Ry
     Harris-Foulkes estimate   =     -49.54019632 Ry
     estimated scf accuracy    <       0.07720022 Ry

     iteration #  2     ecut=    20.00 Ry     beta=0.30
     Davidson diagonalization with overlap
     ethr =  6.43E-04,  avg # of iterations =  1.0

     negative rho (up, down):  8.400E-06 0.000E+00

     total cpu time spent up to now is        0.4 secs

     total energy              =     -49.51165114 Ry
     Harris-Foulkes estimate   =     -49.52315834 Ry
     estimated scf accuracy    <       0.02701413 Ry

     iteration #  3     ecut=    20.00 Ry     beta=0.30
     Davidson diagonalization with overlap
     ethr =  2.25E-04,  avg # of iterations =  2.0

     negative rho (up, down):  5.681E-07 0.000E+00

     total cpu time spent up to now is        0.5 secs

     total energy              =     -49.51561187 Ry
     Harris-Foulkes estimate   =     -49.51585916 Ry
     estimated scf accuracy    <       0.00082051 Ry

     iteration #  4     ecut=    20.00 Ry     beta=0.30
     Davidson diagonalization with overlap
     ethr =  6.84E-06,  avg # of iterations =  5.5

     total cpu time spent up to now is        0.6 secs

     total energy              =     -49.51662376 Ry
     Harris-Foulkes estimate   =     -49.51667664 Ry
     estimated scf accuracy    <       0.00011859 Ry

     iteration #  5     ecut=    20.00 Ry     beta=0.30
     Davidson diagonalization with overlap
     ethr =  9.88E-07,  avg # of iterations =  3.3

     total cpu time spent up to now is        0.7 secs

     total energy              =     -49.51666363 Ry
     Harris-Foulkes estimate   =     -49.51667029 Ry
     estimated scf accuracy    <       0.00001256 Ry

     iteration #  6     ecut=    20.00 Ry     beta=0.30
     Davidson diagonalization with overlap
     ethr =  1.05E-07,  avg # of iterations =  3.2

     total cpu time spent up to now is        0.8 secs

     total energy              =     -49.51666875 Ry
     Harris-Foulkes estimate   =     -49.51667067 Ry
     estimated scf accuracy    <       0.00000439 Ry

     iteration #  7     ecut=    20.00 Ry     beta=0.30
     Davidson diagonalization with overlap
     ethr =  3.66E-08,  avg # of iterations =  2.8

     total cpu time spent up to now is        0.8 secs

     End of self-consistent calculation

          k = 0.0833 0.0833 0.0000 (  3999 PWs)   bands (ev):

   -11.3452  -7.7698  -7.7697  -6.0611  -6.0611  -5.3073  -4.2839  -3.4107
    -2.1180  -2.0717

          k = 0.0833 0.2500 0.0000 (  4011 PWs)   bands (ev):

   -11.0971  -8.9023  -7.5256  -5.8333  -5.3829  -5.0697  -4.4896  -3.9294
    -3.0021  -1.8409

          k = 0.0833 0.4167 0.0000 (  4016 PWs)   bands (ev):

   -10.6028  -9.8674  -7.0399  -6.3201  -5.3819  -4.7259  -4.5971  -3.8982
    -2.6547  -1.3826

          k = 0.2500 0.2500 0.0000 (  4007 PWs)   bands (ev):

   -10.8493  -8.6579  -8.6579  -6.5033  -4.8323  -4.2676  -4.2676  -2.9540
    -2.7681  -2.7681

          k = 0.2500 0.4167 0.0000 (  4019 PWs)   bands (ev):

   -10.3557  -9.6214  -8.1715  -7.4494  -4.3605  -3.8375  -3.6625  -3.2549
    -2.4550  -2.3023

          k = 0.4167 0.4167 0.0000 (  4005 PWs)   bands (ev):

    -9.8637  -9.1319  -9.1319  -8.4039  -3.8895  -3.1935  -3.1934  -2.4995
    -2.1069  -2.0427

     the Fermi energy is    -4.2449 ev

!    total energy              =     -49.51666950 Ry
     Harris-Foulkes estimate   =     -49.51667004 Ry
     estimated scf accuracy    <       0.00000089 Ry

     The total energy is the sum of the following terms:

     one-electron contribution =      30.18740039 Ry
     hartree contribution      =     -14.53514443 Ry
     xc contribution           =     -39.22044900 Ry
     ewald contribution        =     -25.94825331 Ry
     smearing contrib. (-TS)   =      -0.00022314 Ry

     convergence has been achieved in   7 iterations

     Forces acting on atoms (cartesian axes, Ry/au):

     atom    1 type  1   force =     0.00000000    0.00000000    0.00000000
     atom    2 type  1   force =     0.00000000    0.00000000    0.00000000
     atom    3 type  1   force =     0.00000000    0.00000000    0.00000000
     atom    4 type  1   force =     0.00000000    0.00000000    0.00000000

     Total force =     0.000000     Total SCF correction =     0.000000

     Writing output data file Al001_bc1.save

     init_run     :      0.13s CPU      0.13s WALL (       1 calls)
     electrons    :      0.64s CPU      0.66s WALL (       1 calls)
     forces       :      0.05s CPU      0.05s WALL (       1 calls)

     Called by init_run:
     wfcinit      :      0.03s CPU      0.03s WALL (       1 calls)
     potinit      :      0.02s CPU      0.02s WALL (       1 calls)

     Called by electrons:
     c_bands      :      0.46s CPU      0.48s WALL (       8 calls)
     sum_band     :      0.10s CPU      0.10s WALL (       8 calls)
     v_of_rho     :      0.06s CPU      0.06s WALL (       8 calls)
     newd         :      0.02s CPU      0.02s WALL (       8 calls)
     mix_rho      :      0.01s CPU      0.01s WALL (       8 calls)

     Called by c_bands:
     init_us_2    :      0.01s CPU      0.01s WALL (     108 calls)
     cegterg      :      0.45s CPU      0.46s WALL (      48 calls)

     Called by sum_band:
     sum_band:bec :      0.00s CPU      0.00s WALL (      48 calls)
     addusdens    :      0.02s CPU      0.03s WALL (       8 calls)

     Called by *egterg:
     h_psi        :      0.36s CPU      0.37s WALL (     202 calls)
     s_psi        :      0.01s CPU      0.01s WALL (     202 calls)
     g_psi        :      0.00s CPU      0.00s WALL (     148 calls)
     cdiaghg      :      0.03s CPU      0.03s WALL (     190 calls)

     Called by h_psi:
     h_psi:pot    :      0.36s CPU      0.36s WALL (     202 calls)
     h_psi:calbec :      0.01s CPU      0.01s WALL (     202 calls)
     vloc_psi     :      0.33s CPU      0.34s WALL (     202 calls)
     add_vuspsi   :      0.01s CPU      0.01s WALL (     202 calls)

     General routines
     calbec       :      0.02s CPU      0.02s WALL (     274 calls)
     fft          :      0.03s CPU      0.03s WALL (     117 calls)
     fftw         :      0.34s CPU      0.34s WALL (    3484 calls)
     davcio       :      0.00s CPU      0.00s WALL (       6 calls)

     Parallel routines
     fft_scatter  :      0.16s CPU      0.16s WALL (    3601 calls)

     PWSCF        :     0.85s CPU         0.90s WALL


   This run was terminated on:  23: 8:45   4Feb2021            

=------------------------------------------------------------------------------=
   JOB DONE.
=------------------------------------------------------------------------------=
