
     Program PWSCF v.6.1 starts on  4Feb2021 at 23: 8:33 

     This program is part of the open-source Quantum ESPRESSO suite
     for quantum simulation of materials; please cite
         "P. Giannozzi et al., J. Phys.:Condens. Matter 21 395502 (2009);
          URL http://www.quantum-espresso.org", 
     in publications or presentations arising from this work. More details at
     http://www.quantum-espresso.org/quote

     Parallel version (MPI & OpenMP), running on       4 processor cores
     Number of MPI processes:                 4
     Threads/MPI process:                     1
     R & G space division:  proc/nbgrp/npool/nimage =       4
     Waiting for input...
     Reading input from standard input

     Current dimensions of program PWSCF are:
     Max number of different atomic species (ntypx) = 10
     Max number of k-points (npk) =  40000
     Max angular momentum in pseudopotentials (lmaxx) =  3

     Subspace diagonalization in iterative solution of the eigenvalue problem:
     a serial algorithm will be used

     Found symmetry operation: I + ( -0.5000  0.0000  0.0000)
     This is a supercell, fractional translations are disabled

     Parallelization info
     --------------------
     sticks:   dense  smooth     PW     G-vecs:    dense   smooth      PW
     Min         187     187     54                 8037     8037    1261
     Max         188     188     56                 8044     8044    1262
     Sum         749     749    221                32157    32157    5047



     bravais-lattice index     =            0
     lattice parameter (alat)  =      10.8223  a.u.
     unit-cell volume          =    2655.9321 (a.u.)^3
     number of atoms/cell      =            4
     number of atomic types    =            1
     number of electrons       =        12.00
     number of Kohn-Sham states=           10
     kinetic-energy cutoff     =      20.0000  Ry
     charge density cutoff     =      80.0000  Ry
     convergence threshold     =      1.0E-06
     mixing beta               =       0.3000
     number of iterations used =            8  plain     mixing
     Exchange-correlation      =  SLA  PW   PBE  PBE ( 1  4  3  4 0 0)

     Effective Screening Medium Method
     =================================
     Ordinary Periodic Boundary Conditions
     total charge in unit cell        =   0.0000
     grid points for fit at edges     =        4 


     celldm(1)=  10.822273  celldm(2)=   0.000000  celldm(3)=   0.000000
     celldm(4)=   0.000000  celldm(5)=   0.000000  celldm(6)=   0.000000

     crystal axes: (cart. coord. in units of alat)
               a(1) = (   1.000000   0.000000   0.000000 )  
               a(2) = (   0.000000   1.000000   0.000000 )  
               a(3) = (   0.000000   0.000000   2.095374 )  

     reciprocal axes: (cart. coord. in units 2 pi/alat)
               b(1) = (  1.000000  0.000000  0.000000 )  
               b(2) = (  0.000000  1.000000  0.000000 )  
               b(3) = (  0.000000  0.000000  0.477242 )  


     PseudoPot. # 1 for Al read from file:
     /Users/otani/Program/q-e/git-worktrees/qe-6.1-rism/pseudo/Al.pbe-n-van.UPF
     MD5 check sum: cbc97ad259b400557db688b98a6ada97
     Pseudo is Ultrasoft + core correction, Zval =  3.0
     Generated by new atomic code, or converted to UPF format
     Using radial grid of  893 points,  2 beta functions with: 
                l(1) =   0
                l(2) =   1
     Q(r) pseudized with  8 coefficients,  rinner =    0.900   0.900   0.900


     atomic species   valence    mass     pseudopotential
        Al             3.00    26.98154     Al( 1.00)

     16 Sym. Ops., with inversion, found



   Cartesian axes

     site n.     atom                  positions (alat units)
         1           Al  tau(   1) = (   0.0000000   0.0000000   0.0000000  )
         2           Al  tau(   2) = (   0.5000000   0.0000000   0.0000000  )
         3           Al  tau(   3) = (   0.0000000   0.5000000   0.0000000  )
         4           Al  tau(   4) = (   0.5000000   0.5000000   0.0000000  )

     number of k points=     6  Methfessel-Paxton smearing, width (Ry)=  0.0300
                       cart. coord. in units 2pi/alat
        k(    1) = (   0.0833333   0.0833333   0.0000000), wk =   0.2222222
        k(    2) = (   0.0833333   0.2500000   0.0000000), wk =   0.4444444
        k(    3) = (   0.0833333   0.4166667   0.0000000), wk =   0.4444444
        k(    4) = (   0.2500000   0.2500000   0.0000000), wk =   0.2222222
        k(    5) = (   0.2500000   0.4166667   0.0000000), wk =   0.4444444
        k(    6) = (   0.4166667   0.4166667   0.0000000), wk =   0.2222222

     Dense  grid:    32157 G-vectors     FFT dimensions: (  32,  32,  72)

     Estimated max dynamical RAM per process >       7.08MB

     Estimated total allocated dynamical RAM >      28.32MB

     Check: negative/imaginary core charge=   -0.000012    0.000000

     Initial potential from superposition of free atoms
     Check: negative starting charge=   -0.000169

     starting charge   11.99014, renormalised to   12.00000

     negative rho (up, down):  1.687E-04 0.000E+00
     Starting wfc are   16 randomized atomic wfcs

     total cpu time spent up to now is        0.2 secs

     Self-consistent Calculation

     iteration #  1     ecut=    20.00 Ry     beta=0.30
     Davidson diagonalization with overlap
     ethr =  1.00E-02,  avg # of iterations =  2.3

     Threshold (ethr) on eigenvalues was too large:
     Diagonalizing with lowered threshold

     Davidson diagonalization with overlap
     ethr =  6.48E-04,  avg # of iterations =  1.8

     negative rho (up, down):  1.049E-04 0.000E+00

     total cpu time spent up to now is        0.3 secs

     total energy              =     -49.52134225 Ry
     Harris-Foulkes estimate   =     -49.54107012 Ry
     estimated scf accuracy    <       0.07951838 Ry

     iteration #  2     ecut=    20.00 Ry     beta=0.30
     Davidson diagonalization with overlap
     ethr =  6.63E-04,  avg # of iterations =  1.0

     negative rho (up, down):  2.177E-05 0.000E+00

     total cpu time spent up to now is        0.4 secs

     total energy              =     -49.51374882 Ry
     Harris-Foulkes estimate   =     -49.52355109 Ry
     estimated scf accuracy    <       0.02458222 Ry

     iteration #  3     ecut=    20.00 Ry     beta=0.30
     Davidson diagonalization with overlap
     ethr =  2.05E-04,  avg # of iterations =  1.0

     negative rho (up, down):  1.121E-06 0.000E+00

     total cpu time spent up to now is        0.4 secs

     total energy              =     -49.51646855 Ry
     Harris-Foulkes estimate   =     -49.51683662 Ry
     estimated scf accuracy    <       0.00101041 Ry

     iteration #  4     ecut=    20.00 Ry     beta=0.30
     Davidson diagonalization with overlap
     ethr =  8.42E-06,  avg # of iterations =  2.5

     negative rho (up, down):  1.957E-07 0.000E+00

     total cpu time spent up to now is        0.5 secs

     total energy              =     -49.51662022 Ry
     Harris-Foulkes estimate   =     -49.51674262 Ry
     estimated scf accuracy    <       0.00026368 Ry

     iteration #  5     ecut=    20.00 Ry     beta=0.30
     Davidson diagonalization with overlap
     ethr =  2.20E-06,  avg # of iterations =  2.5

     total cpu time spent up to now is        0.6 secs

     total energy              =     -49.51666565 Ry
     Harris-Foulkes estimate   =     -49.51666483 Ry
     estimated scf accuracy    <       0.00000148 Ry

     iteration #  6     ecut=    20.00 Ry     beta=0.30
     Davidson diagonalization with overlap
     ethr =  1.24E-08,  avg # of iterations =  3.0

     total cpu time spent up to now is        0.6 secs

     total energy              =     -49.51666662 Ry
     Harris-Foulkes estimate   =     -49.51666718 Ry
     estimated scf accuracy    <       0.00000126 Ry

     iteration #  7     ecut=    20.00 Ry     beta=0.30
     Davidson diagonalization with overlap
     ethr =  1.05E-08,  avg # of iterations =  2.0

     total cpu time spent up to now is        0.7 secs

     End of self-consistent calculation

          k = 0.0833 0.0833 0.0000 (  3999 PWs)   bands (ev):

    -9.1433  -5.5678  -5.5678  -3.8592  -3.8592  -3.1045  -2.0820  -1.2090
     0.0840   0.1310

          k = 0.0833 0.2500 0.0000 (  4011 PWs)   bands (ev):

    -8.8951  -6.7004  -5.3236  -3.6315  -3.1810  -2.8668  -2.2878  -1.7276
    -0.7993   0.3619

          k = 0.0833 0.4167 0.0000 (  4016 PWs)   bands (ev):

    -8.4009  -7.6655  -4.8380  -4.1182  -3.1800  -2.5241  -2.3943  -1.6954
    -0.4529   0.8200

          k = 0.2500 0.2500 0.0000 (  4007 PWs)   bands (ev):

    -8.6474  -6.4560  -6.4560  -4.3014  -2.6294  -2.0657  -2.0657  -0.7523
    -0.5654  -0.5654

          k = 0.2500 0.4167 0.0000 (  4019 PWs)   bands (ev):

    -8.1538  -7.4195  -5.9696  -5.2475  -2.1576  -1.6357  -1.4597  -1.0532
    -0.2533  -0.0996

          k = 0.4167 0.4167 0.0000 (  4005 PWs)   bands (ev):

    -7.6618  -6.9300  -6.9300  -6.2020  -1.6867  -0.9907  -0.9907  -0.2969
     0.0948   0.1589

     the Fermi energy is    -2.0427 ev

!    total energy              =     -49.51666681 Ry
     Harris-Foulkes estimate   =     -49.51666692 Ry
     estimated scf accuracy    <       0.00000019 Ry

     The total energy is the sum of the following terms:

     one-electron contribution =     -30.15238866 Ry
     hartree contribution      =      16.60806873 Ry
     xc contribution           =     -39.22059694 Ry
     ewald contribution        =       3.24847485 Ry
     smearing contrib. (-TS)   =      -0.00022479 Ry

     convergence has been achieved in   7 iterations

     Forces acting on atoms (cartesian axes, Ry/au):

     atom    1 type  1   force =     0.00000000    0.00000000    0.00000000
     atom    2 type  1   force =     0.00000000    0.00000000    0.00000000
     atom    3 type  1   force =     0.00000000    0.00000000    0.00000000
     atom    4 type  1   force =     0.00000000    0.00000000    0.00000000

     Total force =     0.000000     Total SCF correction =     0.000000

     Writing output data file Al001_pbc.save

     init_run     :      0.12s CPU      0.12s WALL (       1 calls)
     electrons    :      0.53s CPU      0.55s WALL (       1 calls)
     forces       :      0.05s CPU      0.05s WALL (       1 calls)

     Called by init_run:
     wfcinit      :      0.03s CPU      0.03s WALL (       1 calls)
     potinit      :      0.02s CPU      0.02s WALL (       1 calls)

     Called by electrons:
     c_bands      :      0.36s CPU      0.37s WALL (       8 calls)
     sum_band     :      0.09s CPU      0.10s WALL (       8 calls)
     v_of_rho     :      0.05s CPU      0.05s WALL (       8 calls)
     newd         :      0.02s CPU      0.02s WALL (       8 calls)
     mix_rho      :      0.01s CPU      0.01s WALL (       8 calls)

     Called by c_bands:
     init_us_2    :      0.01s CPU      0.01s WALL (     108 calls)
     cegterg      :      0.35s CPU      0.36s WALL (      48 calls)

     Called by sum_band:
     sum_band:bec :      0.00s CPU      0.00s WALL (      48 calls)
     addusdens    :      0.02s CPU      0.02s WALL (       8 calls)

     Called by *egterg:
     h_psi        :      0.30s CPU      0.30s WALL (     151 calls)
     s_psi        :      0.01s CPU      0.01s WALL (     151 calls)
     g_psi        :      0.00s CPU      0.00s WALL (      97 calls)
     cdiaghg      :      0.02s CPU      0.02s WALL (     139 calls)

     Called by h_psi:
     h_psi:pot    :      0.29s CPU      0.30s WALL (     151 calls)
     h_psi:calbec :      0.01s CPU      0.01s WALL (     151 calls)
     vloc_psi     :      0.27s CPU      0.28s WALL (     151 calls)
     add_vuspsi   :      0.01s CPU      0.01s WALL (     151 calls)

     General routines
     calbec       :      0.02s CPU      0.02s WALL (     223 calls)
     fft          :      0.03s CPU      0.03s WALL (     117 calls)
     fftw         :      0.29s CPU      0.29s WALL (    2986 calls)
     davcio       :      0.00s CPU      0.00s WALL (       6 calls)

     Parallel routines
     fft_scatter  :      0.14s CPU      0.14s WALL (    3103 calls)

     PWSCF        :     0.73s CPU         0.78s WALL


   This run was terminated on:  23: 8:34   4Feb2021            

=------------------------------------------------------------------------------=
   JOB DONE.
=------------------------------------------------------------------------------=
