
     Program PWSCF v.6.1 starts on  4Feb2021 at 23: 9:21 

     This program is part of the open-source Quantum ESPRESSO suite
     for quantum simulation of materials; please cite
         "P. Giannozzi et al., J. Phys.:Condens. Matter 21 395502 (2009);
          URL http://www.quantum-espresso.org", 
     in publications or presentations arising from this work. More details at
     http://www.quantum-espresso.org/quote

     Parallel version (MPI & OpenMP), running on       4 processor cores
     Number of MPI processes:                 4
     Threads/MPI process:                     1
     R & G space division:  proc/nbgrp/npool/nimage =       4
     Waiting for input...
     Reading input from standard input

     Current dimensions of program PWSCF are:
     Max number of different atomic species (ntypx) = 10
     Max number of k-points (npk) =  40000
     Max angular momentum in pseudopotentials (lmaxx) =  3

     Subspace diagonalization in iterative solution of the eigenvalue problem:
     a serial algorithm will be used

     Found symmetry operation: I + ( -0.5000  0.0000  0.0000)
     This is a supercell, fractional translations are disabled

     Parallelization info
     --------------------
     sticks:   dense  smooth     PW     G-vecs:    dense   smooth      PW
     Min         187     187     54                 8037     8037    1261
     Max         188     188     56                 8044     8044    1262
     Sum         749     749    221                32157    32157    5047



     bravais-lattice index     =            0
     lattice parameter (alat)  =      10.8223  a.u.
     unit-cell volume          =    2655.9321 (a.u.)^3
     number of atoms/cell      =            4
     number of atomic types    =            1
     number of electrons       =        12.02
     number of Kohn-Sham states=           10
     kinetic-energy cutoff     =      20.0000  Ry
     charge density cutoff     =      80.0000  Ry
     convergence threshold     =      1.0E-06
     mixing beta               =       0.3000
     number of iterations used =            8  plain     mixing
     Exchange-correlation      =  SLA  PW   PBE  PBE ( 1  4  3  4 0 0)

     Effective Screening Medium Method
     =================================
     Boundary Conditions: Vacuum-Slab-Metal
     total charge in unit cell        =  -0.0200
     grid points for fit at edges     =        4 


     celldm(1)=  10.822273  celldm(2)=   0.000000  celldm(3)=   0.000000
     celldm(4)=   0.000000  celldm(5)=   0.000000  celldm(6)=   0.000000

     crystal axes: (cart. coord. in units of alat)
               a(1) = (   1.000000   0.000000   0.000000 )  
               a(2) = (   0.000000   1.000000   0.000000 )  
               a(3) = (   0.000000   0.000000   2.095374 )  

     reciprocal axes: (cart. coord. in units 2 pi/alat)
               b(1) = (  1.000000  0.000000  0.000000 )  
               b(2) = (  0.000000  1.000000  0.000000 )  
               b(3) = (  0.000000  0.000000  0.477242 )  


     PseudoPot. # 1 for Al read from file:
     /Users/otani/Program/q-e/git-worktrees/qe-6.1-rism/pseudo/Al.pbe-n-van.UPF
     MD5 check sum: cbc97ad259b400557db688b98a6ada97
     Pseudo is Ultrasoft + core correction, Zval =  3.0
     Generated by new atomic code, or converted to UPF format
     Using radial grid of  893 points,  2 beta functions with: 
                l(1) =   0
                l(2) =   1
     Q(r) pseudized with  8 coefficients,  rinner =    0.900   0.900   0.900


     atomic species   valence    mass     pseudopotential
        Al             3.00    26.98154     Al( 1.00)

      8 Sym. Ops. (no inversion) found



   Cartesian axes

     site n.     atom                  positions (alat units)
         1           Al  tau(   1) = (   0.0000000   0.0000000   0.0000000  )
         2           Al  tau(   2) = (   0.5000000   0.0000000   0.0000000  )
         3           Al  tau(   3) = (   0.0000000   0.5000000   0.0000000  )
         4           Al  tau(   4) = (   0.5000000   0.5000000   0.0000000  )

     number of k points=     6  Methfessel-Paxton smearing, width (Ry)=  0.0300
                       cart. coord. in units 2pi/alat
        k(    1) = (   0.0833333   0.0833333   0.0000000), wk =   0.2222222
        k(    2) = (   0.0833333   0.2500000   0.0000000), wk =   0.4444444
        k(    3) = (   0.0833333   0.4166667   0.0000000), wk =   0.4444444
        k(    4) = (   0.2500000   0.2500000   0.0000000), wk =   0.2222222
        k(    5) = (   0.2500000   0.4166667   0.0000000), wk =   0.4444444
        k(    6) = (   0.4166667   0.4166667   0.0000000), wk =   0.2222222

     Dense  grid:    32157 G-vectors     FFT dimensions: (  32,  32,  72)

     Estimated max dynamical RAM per process >       7.08MB

     Estimated total allocated dynamical RAM >      28.32MB

     Check: negative/imaginary core charge=   -0.000012    0.000000

     Initial potential from superposition of free atoms
     Check: negative starting charge=   -0.000169

     starting charge   11.99014, renormalised to   12.02000

     negative rho (up, down):  1.689E-04 0.000E+00
     Starting wfc are   16 randomized atomic wfcs

     total cpu time spent up to now is        0.3 secs

     Self-consistent Calculation

     iteration #  1     ecut=    20.00 Ry     beta=0.30
     Davidson diagonalization with overlap
     ethr =  1.00E-02,  avg # of iterations =  2.8

     Threshold (ethr) on eigenvalues was too large:
     Diagonalizing with lowered threshold

     Davidson diagonalization with overlap
     ethr =  1.94E-04,  avg # of iterations =  8.2

     negative rho (up, down):  9.047E-05 0.000E+00

     total cpu time spent up to now is        0.8 secs

     total energy              =     -49.52733189 Ry
     Harris-Foulkes estimate   =     -49.54368256 Ry
     estimated scf accuracy    <       0.06717645 Ry

     iteration #  2     ecut=    20.00 Ry     beta=0.30
     Davidson diagonalization with overlap
     ethr =  5.59E-04,  avg # of iterations =  1.0

     negative rho (up, down):  2.619E-06 0.000E+00

     total cpu time spent up to now is        1.0 secs

     total energy              =     -49.51780810 Ry
     Harris-Foulkes estimate   =     -49.52891775 Ry
     estimated scf accuracy    <       0.02573407 Ry

     iteration #  3     ecut=    20.00 Ry     beta=0.30
     Davidson diagonalization with overlap
     ethr =  2.14E-04,  avg # of iterations =  1.0

     negative rho (up, down):  4.262E-07 0.000E+00

     total cpu time spent up to now is        1.2 secs

     total energy              =     -49.52061215 Ry
     Harris-Foulkes estimate   =     -49.52077346 Ry
     estimated scf accuracy    <       0.00054072 Ry

     iteration #  4     ecut=    20.00 Ry     beta=0.30
     Davidson diagonalization with overlap
     ethr =  4.50E-06,  avg # of iterations = 13.2

     negative rho (up, down):  1.930E-06 0.000E+00

     total cpu time spent up to now is        1.7 secs

     total energy              =     -49.52286876 Ry
     Harris-Foulkes estimate   =     -49.52274001 Ry
     estimated scf accuracy    <       0.00073317 Ry

     iteration #  5     ecut=    20.00 Ry     beta=0.30
     Davidson diagonalization with overlap
     ethr =  4.50E-06,  avg # of iterations =  6.5

     total cpu time spent up to now is        1.9 secs

     total energy              =     -49.52147618 Ry
     Harris-Foulkes estimate   =     -49.52453113 Ry
     estimated scf accuracy    <       0.00590214 Ry

     iteration #  6     ecut=    20.00 Ry     beta=0.30
     Davidson diagonalization with overlap
     ethr =  4.50E-06,  avg # of iterations =  5.0

     total cpu time spent up to now is        2.2 secs

     total energy              =     -49.52251973 Ry
     Harris-Foulkes estimate   =     -49.52251320 Ry
     estimated scf accuracy    <       0.00001151 Ry

     iteration #  7     ecut=    20.00 Ry     beta=0.30
     Davidson diagonalization with overlap
     ethr =  9.57E-08,  avg # of iterations = 10.5

     total cpu time spent up to now is        2.5 secs

     total energy              =     -49.52259784 Ry
     Harris-Foulkes estimate   =     -49.52259128 Ry
     estimated scf accuracy    <       0.00012140 Ry

     iteration #  8     ecut=    20.00 Ry     beta=0.30
     Davidson diagonalization with overlap
     ethr =  9.57E-08,  avg # of iterations =  4.0

     total cpu time spent up to now is        2.6 secs

     total energy              =     -49.52253393 Ry
     Harris-Foulkes estimate   =     -49.52260469 Ry
     estimated scf accuracy    <       0.00017582 Ry

     iteration #  9     ecut=    20.00 Ry     beta=0.30
     Davidson diagonalization with overlap
     ethr =  9.57E-08,  avg # of iterations =  6.0

     total cpu time spent up to now is        2.8 secs

     total energy              =     -49.52256164 Ry
     Harris-Foulkes estimate   =     -49.52256043 Ry
     estimated scf accuracy    <       0.00000522 Ry

     iteration # 10     ecut=    20.00 Ry     beta=0.30
     Davidson diagonalization with overlap
     ethr =  4.34E-08,  avg # of iterations =  4.7

     total cpu time spent up to now is        3.0 secs

     total energy              =     -49.52256334 Ry
     Harris-Foulkes estimate   =     -49.52256467 Ry
     estimated scf accuracy    <       0.00000790 Ry

     iteration # 11     ecut=    20.00 Ry     beta=0.30
     Davidson diagonalization with overlap
     ethr =  4.34E-08,  avg # of iterations =  1.0

     total cpu time spent up to now is        3.1 secs

     total energy              =     -49.52256378 Ry
     Harris-Foulkes estimate   =     -49.52256348 Ry
     estimated scf accuracy    <       0.00000638 Ry

     iteration # 12     ecut=    20.00 Ry     beta=0.30
     Davidson diagonalization with overlap
     ethr =  4.34E-08,  avg # of iterations =  1.0

     total cpu time spent up to now is        3.3 secs

     total energy              =     -49.52256226 Ry
     Harris-Foulkes estimate   =     -49.52256387 Ry
     estimated scf accuracy    <       0.00000763 Ry

     iteration # 13     ecut=    20.00 Ry     beta=0.30
     Davidson diagonalization with overlap
     ethr =  4.34E-08,  avg # of iterations =  2.3

     total cpu time spent up to now is        3.4 secs

     total energy              =     -49.52256269 Ry
     Harris-Foulkes estimate   =     -49.52256323 Ry
     estimated scf accuracy    <       0.00000144 Ry

     iteration # 14     ecut=    20.00 Ry     beta=0.30
     Davidson diagonalization with overlap
     ethr =  1.20E-08,  avg # of iterations =  2.8

     total cpu time spent up to now is        3.5 secs

     End of self-consistent calculation

          k = 0.0833 0.0833 0.0000 (  3999 PWs)   bands (ev):

   -10.8952  -7.3196  -7.3196  -5.6110  -5.6110  -4.8692  -3.8335  -2.9600
    -1.6678  -1.6312

          k = 0.0833 0.2500 0.0000 (  4011 PWs)   bands (ev):

   -10.6470  -8.4522  -7.0754  -5.3832  -4.9326  -4.6315  -4.0394  -3.4790
    -2.5628  -1.4002

          k = 0.0833 0.4167 0.0000 (  4016 PWs)   bands (ev):

   -10.1528  -9.4173  -6.5897  -5.8699  -4.9317  -4.2756  -4.1588  -3.4595
    -2.2044  -0.9418

          k = 0.2500 0.2500 0.0000 (  4007 PWs)   bands (ev):

   -10.3993  -8.2078  -8.2078  -6.0531  -4.3940  -3.8173  -3.8173  -2.5033
    -2.3288  -2.3287

          k = 0.2500 0.4167 0.0000 (  4019 PWs)   bands (ev):

    -9.9056  -9.1713  -7.7214  -6.9992  -3.9220  -3.3871  -3.2237  -2.8043
    -2.0047  -1.8628

          k = 0.4167 0.4167 0.0000 (  4005 PWs)   bands (ev):

    -9.4136  -8.6818  -8.6818  -7.9538  -3.4508  -2.7545  -2.7545  -2.0604
    -1.6565  -1.5918

     the Fermi energy is    -3.7932 ev

!    total energy              =     -49.52256280 Ry
     Harris-Foulkes estimate   =     -49.52256280 Ry
     estimated scf accuracy    <       0.00000084 Ry

     The total energy is the sum of the following terms:

     one-electron contribution =    -320.56752376 Ry
     hartree contribution      =     161.04099210 Ry
     xc contribution           =     -39.22796810 Ry
     ewald contribution        =     149.23211567 Ry
     smearing contrib. (-TS)   =      -0.00017871 Ry

     convergence has been achieved in  14 iterations

     Forces acting on atoms (cartesian axes, Ry/au):

     atom    1 type  1   force =     0.00000000    0.00000000    0.00007593
     atom    2 type  1   force =     0.00000000    0.00000000    0.00007687
     atom    3 type  1   force =     0.00000000    0.00000000    0.00007687
     atom    4 type  1   force =     0.00000000    0.00000000    0.00007615

     Total force =     0.000153     Total SCF correction =     0.001424
     SCF correction compared to forces is large: reduce conv_thr to get better values

     Writing output data file Al001_bc3_m002.save

     init_run     :      0.23s CPU      0.26s WALL (       1 calls)
     electrons    :      2.81s CPU      3.18s WALL (       1 calls)
     forces       :      0.09s CPU      0.09s WALL (       1 calls)

     Called by init_run:
     wfcinit      :      0.06s CPU      0.06s WALL (       1 calls)
     potinit      :      0.04s CPU      0.05s WALL (       1 calls)

     Called by electrons:
     c_bands      :      2.18s CPU      2.44s WALL (      15 calls)
     sum_band     :      0.36s CPU      0.42s WALL (      15 calls)
     v_of_rho     :      0.18s CPU      0.20s WALL (      15 calls)
     newd         :      0.06s CPU      0.07s WALL (      15 calls)
     mix_rho      :      0.04s CPU      0.05s WALL (      15 calls)

     Called by c_bands:
     init_us_2    :      0.04s CPU      0.04s WALL (     192 calls)
     cegterg      :      2.12s CPU      2.37s WALL (      90 calls)

     Called by sum_band:
     sum_band:bec :      0.00s CPU      0.00s WALL (      90 calls)
     addusdens    :      0.06s CPU      0.07s WALL (      15 calls)

     Called by *egterg:
     h_psi        :      1.63s CPU      1.82s WALL (     516 calls)
     s_psi        :      0.03s CPU      0.04s WALL (     516 calls)
     g_psi        :      0.01s CPU      0.01s WALL (     420 calls)
     cdiaghg      :      0.13s CPU      0.15s WALL (     504 calls)

     Called by h_psi:
     h_psi:pot    :      1.61s CPU      1.79s WALL (     516 calls)
     h_psi:calbec :      0.07s CPU      0.08s WALL (     516 calls)
     vloc_psi     :      1.50s CPU      1.67s WALL (     516 calls)
     add_vuspsi   :      0.04s CPU      0.04s WALL (     516 calls)

     General routines
     calbec       :      0.09s CPU      0.10s WALL (     630 calls)
     fft          :      0.09s CPU      0.11s WALL (     208 calls)
     fftw         :      1.49s CPU      1.68s WALL (    7534 calls)
     davcio       :      0.00s CPU      0.00s WALL (       6 calls)

     Parallel routines
     fft_scatter  :      0.80s CPU      0.92s WALL (    7742 calls)

     PWSCF        :     3.18s CPU         3.62s WALL


   This run was terminated on:  23: 9:25   4Feb2021            

=------------------------------------------------------------------------------=
   JOB DONE.
=------------------------------------------------------------------------------=
