
     Program PWSCF v.6.1 starts on  4Feb2021 at 23:10: 4 

     This program is part of the open-source Quantum ESPRESSO suite
     for quantum simulation of materials; please cite
         "P. Giannozzi et al., J. Phys.:Condens. Matter 21 395502 (2009);
          URL http://www.quantum-espresso.org", 
     in publications or presentations arising from this work. More details at
     http://www.quantum-espresso.org/quote

     Parallel version (MPI & OpenMP), running on       4 processor cores
     Number of MPI processes:                 4
     Threads/MPI process:                     1
     R & G space division:  proc/nbgrp/npool/nimage =       4
     Waiting for input...
     Reading input from standard input

     Current dimensions of program PWSCF are:
     Max number of different atomic species (ntypx) = 10
     Max number of k-points (npk) =  40000
     Max angular momentum in pseudopotentials (lmaxx) =  3

     Subspace diagonalization in iterative solution of the eigenvalue problem:
     a serial algorithm will be used

     Found symmetry operation: I + ( -0.5000  0.0000  0.0000)
     This is a supercell, fractional translations are disabled

     Parallelization info
     --------------------
     sticks:   dense  smooth     PW     G-vecs:    dense   smooth      PW
     Min         187     187     54                 8037     8037    1261
     Max         188     188     56                 8044     8044    1262
     Sum         749     749    221                32157    32157    5047



     bravais-lattice index     =            0
     lattice parameter (alat)  =      10.8223  a.u.
     unit-cell volume          =    2655.9321 (a.u.)^3
     number of atoms/cell      =            4
     number of atomic types    =            1
     number of electrons       =        12.00
     number of Kohn-Sham states=           10
     kinetic-energy cutoff     =      20.0000  Ry
     charge density cutoff     =      80.0000  Ry
     convergence threshold     =      1.0E-06
     mixing beta               =       0.3000
     number of iterations used =            8  plain     mixing
     Exchange-correlation      =  SLA  PW   PBE  PBE ( 1  4  3  4 0 0)
     nstep                     =           50


     Effective Screening Medium Method
     =================================
     Boundary Conditions: Metal-Slab-Metal
     total charge in unit cell        =   0.0000
     grid points for fit at edges     =        4 


     >>>> FCP Relaxation is activated <<<<<
     Initial Total Charge =     0.000000 e
     Target Fermi Energy  =    -0.349192 Ry
                          =    -4.751000 eV

     celldm(1)=  10.822273  celldm(2)=   0.000000  celldm(3)=   0.000000
     celldm(4)=   0.000000  celldm(5)=   0.000000  celldm(6)=   0.000000

     crystal axes: (cart. coord. in units of alat)
               a(1) = (   1.000000   0.000000   0.000000 )  
               a(2) = (   0.000000   1.000000   0.000000 )  
               a(3) = (   0.000000   0.000000   2.095374 )  

     reciprocal axes: (cart. coord. in units 2 pi/alat)
               b(1) = (  1.000000  0.000000  0.000000 )  
               b(2) = (  0.000000  1.000000  0.000000 )  
               b(3) = (  0.000000  0.000000  0.477242 )  


     PseudoPot. # 1 for Al read from file:
     /Users/otani/Program/q-e/git-worktrees/qe-6.1-rism/pseudo/Al.pbe-n-van.UPF
     MD5 check sum: cbc97ad259b400557db688b98a6ada97
     Pseudo is Ultrasoft + core correction, Zval =  3.0
     Generated by new atomic code, or converted to UPF format
     Using radial grid of  893 points,  2 beta functions with: 
                l(1) =   0
                l(2) =   1
     Q(r) pseudized with  8 coefficients,  rinner =    0.900   0.900   0.900


     atomic species   valence    mass     pseudopotential
        Al             3.00    26.98154     Al( 1.00)

     16 Sym. Ops., with inversion, found



   Cartesian axes

     site n.     atom                  positions (alat units)
         1           Al  tau(   1) = (   0.0000000   0.0000000   0.0000000  )
         2           Al  tau(   2) = (   0.5000000   0.0000000   0.0000000  )
         3           Al  tau(   3) = (   0.0000000   0.5000000   0.0000000  )
         4           Al  tau(   4) = (   0.5000000   0.5000000   0.0000000  )

     number of k points=     6  Methfessel-Paxton smearing, width (Ry)=  0.0300
                       cart. coord. in units 2pi/alat
        k(    1) = (   0.0833333   0.0833333   0.0000000), wk =   0.2222222
        k(    2) = (   0.0833333   0.2500000   0.0000000), wk =   0.4444444
        k(    3) = (   0.0833333   0.4166667   0.0000000), wk =   0.4444444
        k(    4) = (   0.2500000   0.2500000   0.0000000), wk =   0.2222222
        k(    5) = (   0.2500000   0.4166667   0.0000000), wk =   0.4444444
        k(    6) = (   0.4166667   0.4166667   0.0000000), wk =   0.2222222

     Dense  grid:    32157 G-vectors     FFT dimensions: (  32,  32,  72)

     Estimated max dynamical RAM per process >       7.08MB

     Estimated total allocated dynamical RAM >      28.32MB

     Check: negative/imaginary core charge=   -0.000012    0.000000

     Initial potential from superposition of free atoms
     Check: negative starting charge=   -0.000169

     starting charge   11.99014, renormalised to   12.00000

     negative rho (up, down):  1.687E-04 0.000E+00
     Starting wfc are   16 randomized atomic wfcs

     total cpu time spent up to now is        0.2 secs

     Self-consistent Calculation

     iteration #  1     ecut=    20.00 Ry     beta=0.30
     Davidson diagonalization with overlap
     ethr =  1.00E-02,  avg # of iterations =  2.5

     Threshold (ethr) on eigenvalues was too large:
     Diagonalizing with lowered threshold

     Davidson diagonalization with overlap
     ethr =  3.59E-04,  avg # of iterations =  4.2

     negative rho (up, down):  9.429E-05 0.000E+00

     total cpu time spent up to now is        0.5 secs

     total energy              =     -49.52104702 Ry
     Harris-Foulkes estimate   =     -49.54044966 Ry
     estimated scf accuracy    <       0.07861221 Ry

     iteration #  2     ecut=    20.00 Ry     beta=0.30
     Davidson diagonalization with overlap
     ethr =  6.55E-04,  avg # of iterations =  1.0

     negative rho (up, down):  8.703E-06 0.000E+00

     total cpu time spent up to now is        0.6 secs

     total energy              =     -49.51184710 Ry
     Harris-Foulkes estimate   =     -49.52312089 Ry
     estimated scf accuracy    <       0.02678306 Ry

     iteration #  3     ecut=    20.00 Ry     beta=0.30
     Davidson diagonalization with overlap
     ethr =  2.23E-04,  avg # of iterations =  1.3

     negative rho (up, down):  5.214E-08 0.000E+00

     total cpu time spent up to now is        0.7 secs

     total energy              =     -49.51556000 Ry
     Harris-Foulkes estimate   =     -49.51578601 Ry
     estimated scf accuracy    <       0.00073168 Ry

     iteration #  4     ecut=    20.00 Ry     beta=0.30
     Davidson diagonalization with overlap
     ethr =  6.10E-06,  avg # of iterations =  5.8

     total cpu time spent up to now is        0.9 secs

     total energy              =     -49.51665373 Ry
     Harris-Foulkes estimate   =     -49.51665428 Ry
     estimated scf accuracy    <       0.00001760 Ry

     iteration #  5     ecut=    20.00 Ry     beta=0.30
     Davidson diagonalization with overlap
     ethr =  1.47E-07,  avg # of iterations =  5.0

     total cpu time spent up to now is        1.0 secs

     total energy              =     -49.51666987 Ry
     Harris-Foulkes estimate   =     -49.51666899 Ry
     estimated scf accuracy    <       0.00000853 Ry

     iteration #  6     ecut=    20.00 Ry     beta=0.30
     Davidson diagonalization with overlap
     ethr =  7.11E-08,  avg # of iterations =  2.0

     total cpu time spent up to now is        1.1 secs

     total energy              =     -49.51666905 Ry
     Harris-Foulkes estimate   =     -49.51667092 Ry
     estimated scf accuracy    <       0.00000316 Ry

     iteration #  7     ecut=    20.00 Ry     beta=0.30
     Davidson diagonalization with overlap
     ethr =  2.63E-08,  avg # of iterations =  2.0

     total cpu time spent up to now is        1.2 secs

     End of self-consistent calculation

          k = 0.0833 0.0833 0.0000 (  3999 PWs)   bands (ev):

   -11.3517  -7.7763  -7.7762  -6.0677  -6.0677  -5.3123  -4.2904  -3.4174
    -2.1244  -2.0768

          k = 0.0833 0.2500 0.0000 (  4011 PWs)   bands (ev):

   -11.1036  -8.9088  -7.5321  -5.8399  -5.3894  -5.0746  -4.4962  -3.9360
    -3.0071  -1.8459

          k = 0.0833 0.4167 0.0000 (  4016 PWs)   bands (ev):

   -10.6093  -9.8739  -7.0464  -6.3266  -5.3885  -4.7325  -4.6021  -3.9032
    -2.6611  -1.3876

          k = 0.2500 0.2500 0.0000 (  4007 PWs)   bands (ev):

   -10.8558  -8.6645  -8.6644  -6.5098  -4.8372  -4.2742  -4.2741  -2.9607
    -2.7733  -2.7731

          k = 0.2500 0.4167 0.0000 (  4019 PWs)   bands (ev):

   -10.3622  -9.6279  -8.1780  -7.4559  -4.3655  -3.8441  -3.6676  -3.2615
    -2.4614  -2.3074

          k = 0.4167 0.4167 0.0000 (  4005 PWs)   bands (ev):

    -9.8702  -9.1384  -9.1383  -8.4104  -3.8945  -3.1986  -3.1985  -2.5046
    -2.1135  -2.0494

     the Fermi energy is    -4.2510 ev

!    total energy              =     -49.51666961 Ry
     Harris-Foulkes estimate   =     -49.51666951 Ry
     estimated scf accuracy    <       0.00000007 Ry

     The total energy is the sum of the following terms:

     one-electron contribution =    -144.99434135 Ry
     hartree contribution      =      73.05660570 Ry
     xc contribution           =     -39.22063970 Ry
     ewald contribution        =      61.64193118 Ry
     smearing contrib. (-TS)   =      -0.00022543 Ry
     pot.stat. contrib. (-muN) =      -0.00000000 Ry

     convergence has been achieved in   7 iterations

     BFGS Geometry Optimization

     number of scf cycles    =   1
     number of bfgs steps    =   0

     grand-energy   new      =     -49.5166696096 Ry

     new trust radius        =       0.1837636626 bohr
     new conv_thr            =       0.0000010000 Ry


ATOMIC_POSITIONS (angstrom)
Al       0.000000000   0.000000000   0.000000000
Al       2.863450038   0.000000000   0.000000000
Al       0.000000000   2.863450038   0.000000000
Al       2.863450038   2.863450038   0.000000000


     FCP: Total Charge =     0.000000  ->     0.030211
     FCP: Fermi Energy =    -0.312439 Ry (   -4.250954 eV)
     FCP: Target Level =    -0.349192 Ry (   -4.751000 eV)
     FCP: Force on FCP =    -0.036753 Ry (   -0.500046 eV)
     FCP: Force Thr.   =     0.000735 Ry (    0.010000 eV)



     Writing output data file Al001_bc2_FCP_vm05.save
     Check: negative starting charge=   -0.000169
     NEW-OLD atomic charge density approx. for the potential

     Check: negative/imaginary core charge=   -0.000012    0.000000
     Check: negative starting charge=   -0.000169
     extrapolated charge   12.00000, renormalised to   11.96979

     total cpu time spent up to now is        1.3 secs

     Self-consistent Calculation

     iteration #  1     ecut=    20.00 Ry     beta=0.30
     Davidson diagonalization with overlap
     ethr =  1.00E-06,  avg # of iterations =  1.5

     Threshold (ethr) on eigenvalues was too large:
     Diagonalizing with lowered threshold

     Davidson diagonalization with overlap
     ethr =  8.25E-09,  avg # of iterations =  1.0

     total cpu time spent up to now is        1.5 secs

     total energy              =     -49.51733337 Ry
     Harris-Foulkes estimate   =     -49.16912419 Ry
     estimated scf accuracy    <       0.00000101 Ry

     iteration #  2     ecut=    20.00 Ry     beta=0.30
     Davidson diagonalization with overlap
     ethr =  8.46E-09,  avg # of iterations =  6.8

     total cpu time spent up to now is        1.7 secs

     total energy              =     -49.51745610 Ry
     Harris-Foulkes estimate   =     -49.51745100 Ry
     estimated scf accuracy    <       0.00014352 Ry

     iteration #  3     ecut=    20.00 Ry     beta=0.30
     Davidson diagonalization with overlap
     ethr =  8.46E-09,  avg # of iterations =  1.0

     total cpu time spent up to now is        1.8 secs

     total energy              =     -49.51744322 Ry
     Harris-Foulkes estimate   =     -49.51745613 Ry
     estimated scf accuracy    <       0.00015582 Ry

     iteration #  4     ecut=    20.00 Ry     beta=0.30
     Davidson diagonalization with overlap
     ethr =  8.46E-09,  avg # of iterations =  1.0

     total cpu time spent up to now is        1.9 secs

     total energy              =     -49.51743700 Ry
     Harris-Foulkes estimate   =     -49.51744342 Ry
     estimated scf accuracy    <       0.00012696 Ry

     iteration #  5     ecut=    20.00 Ry     beta=0.30
     Davidson diagonalization with overlap
     ethr =  8.46E-09,  avg # of iterations =  2.5

     total cpu time spent up to now is        2.0 secs

     total energy              =     -49.51739359 Ry
     Harris-Foulkes estimate   =     -49.51743715 Ry
     estimated scf accuracy    <       0.00011029 Ry

     iteration #  6     ecut=    20.00 Ry     beta=0.30
     Davidson diagonalization with overlap
     ethr =  8.46E-09,  avg # of iterations =  5.5

     total cpu time spent up to now is        2.1 secs

     total energy              =     -49.51740095 Ry
     Harris-Foulkes estimate   =     -49.51740227 Ry
     estimated scf accuracy    <       0.00001113 Ry

     iteration #  7     ecut=    20.00 Ry     beta=0.30
     Davidson diagonalization with overlap
     ethr =  8.46E-09,  avg # of iterations =  1.0

     total cpu time spent up to now is        2.2 secs

     total energy              =     -49.51739658 Ry
     Harris-Foulkes estimate   =     -49.51740099 Ry
     estimated scf accuracy    <       0.00000817 Ry

     iteration #  8     ecut=    20.00 Ry     beta=0.30
     Davidson diagonalization with overlap
     ethr =  8.46E-09,  avg # of iterations =  3.8

     total cpu time spent up to now is        2.4 secs

     End of self-consistent calculation

          k = 0.0833 0.0833 0.0000 (  3999 PWs)   bands (ev):

   -11.6939  -8.1185  -8.1185  -6.4102  -6.4102  -5.6344  -4.6331  -3.7609
    -2.4659  -2.4028

          k = 0.0833 0.2500 0.0000 (  4011 PWs)   bands (ev):

   -11.4457  -9.2510  -7.8743  -6.1825  -5.7319  -5.3969  -4.8388  -4.2790
    -3.3311  -2.1721

          k = 0.0833 0.4167 0.0000 (  4016 PWs)   bands (ev):

   -10.9515 -10.2161  -7.3887  -6.6690  -5.7311  -5.0752  -4.9247  -4.2262
    -3.0040  -1.7142

          k = 0.2500 0.2500 0.0000 (  4007 PWs)   bands (ev):

   -11.1980  -9.0067  -9.0067  -6.8522  -5.1596  -4.6168  -4.6168  -3.3043
    -3.0973  -3.0973

          k = 0.2500 0.4167 0.0000 (  4019 PWs)   bands (ev):

   -10.7044  -9.9701  -8.5203  -7.7982  -4.6881  -4.1868  -3.9907  -3.6046
    -2.8044  -2.6318

          k = 0.4167 0.4167 0.0000 (  4005 PWs)   bands (ev):

   -10.2124  -9.4806  -9.4806  -8.7526  -4.2175  -3.5220  -3.5220  -2.8288
    -2.4567  -2.3931

     the Fermi energy is    -4.5950 ev

!    total energy              =     -49.51739815 Ry
     Harris-Foulkes estimate   =     -49.51739815 Ry
     estimated scf accuracy    <       0.00000002 Ry

     The total energy is the sum of the following terms:

     one-electron contribution =    -144.69121792 Ry
     hartree contribution      =      72.75260924 Ry
     xc contribution           =     -39.20985240 Ry
     ewald contribution        =      61.64193118 Ry
     smearing contrib. (-TS)   =      -0.00031876 Ry
     pot.stat. contrib. (-muN) =      -0.01054948 Ry

     convergence has been achieved in   8 iterations

     number of scf cycles    =   2
     number of bfgs steps    =   1

     grand-energy   old      =     -49.5166696096 Ry
     grand-energy   new      =     -49.5173981466 Ry

     new trust radius        =       0.0833436029 bohr
     new conv_thr            =       0.0000000100 Ry


ATOMIC_POSITIONS (angstrom)
Al       0.000000000   0.000000000   0.000000000
Al       2.863450038   0.000000000   0.000000000
Al       0.000000000   2.863450038   0.000000000
Al       2.863450038   2.863450038   0.000000000


     FCP: Total Charge =     0.030211  ->     0.043913
     FCP: Fermi Energy =    -0.337724 Ry (   -4.594974 eV)
     FCP: Target Level =    -0.349192 Ry (   -4.751000 eV)
     FCP: Force on FCP =    -0.011468 Ry (   -0.156026 eV)
     FCP: Force Thr.   =     0.000735 Ry (    0.010000 eV)



     Writing output data file Al001_bc2_FCP_vm05.save
     Check: negative starting charge=   -0.000169
     NEW-OLD atomic charge density approx. for the potential

     Check: negative/imaginary core charge=   -0.000012    0.000000
     Check: negative starting charge=   -0.000169
     extrapolated charge   11.96979, renormalised to   11.95609

     total cpu time spent up to now is        2.5 secs

     Self-consistent Calculation

     iteration #  1     ecut=    20.00 Ry     beta=0.30
     Davidson diagonalization with overlap
     ethr =  1.00E-06,  avg # of iterations =  1.0

     Threshold (ethr) on eigenvalues was too large:
     Diagonalizing with lowered threshold

     Davidson diagonalization with overlap
     ethr =  2.00E-09,  avg # of iterations =  1.0

     total cpu time spent up to now is        2.7 secs

     total energy              =     -49.51746218 Ry
     Harris-Foulkes estimate   =     -49.35970834 Ry
     estimated scf accuracy    <       0.00000025 Ry

     iteration #  2     ecut=    20.00 Ry     beta=0.30
     Davidson diagonalization with overlap
     ethr =  2.10E-09,  avg # of iterations =  6.7

     total cpu time spent up to now is        2.8 secs

     total energy              =     -49.51748703 Ry
     Harris-Foulkes estimate   =     -49.51748588 Ry
     estimated scf accuracy    <       0.00002950 Ry

     iteration #  3     ecut=    20.00 Ry     beta=0.30
     Davidson diagonalization with overlap
     ethr =  2.10E-09,  avg # of iterations =  1.0

     total cpu time spent up to now is        2.9 secs

     total energy              =     -49.51748357 Ry
     Harris-Foulkes estimate   =     -49.51748703 Ry
     estimated scf accuracy    <       0.00003226 Ry

     iteration #  4     ecut=    20.00 Ry     beta=0.30
     Davidson diagonalization with overlap
     ethr =  2.10E-09,  avg # of iterations =  2.0

     total cpu time spent up to now is        3.0 secs

     total energy              =     -49.51748436 Ry
     Harris-Foulkes estimate   =     -49.51748365 Ry
     estimated scf accuracy    <       0.00002403 Ry

     iteration #  5     ecut=    20.00 Ry     beta=0.30
     Davidson diagonalization with overlap
     ethr =  2.10E-09,  avg # of iterations =  1.0

     total cpu time spent up to now is        3.1 secs

     total energy              =     -49.51747585 Ry
     Harris-Foulkes estimate   =     -49.51748437 Ry
     estimated scf accuracy    <       0.00002560 Ry

     iteration #  6     ecut=    20.00 Ry     beta=0.30
     Davidson diagonalization with overlap
     ethr =  2.10E-09,  avg # of iterations =  4.7

     total cpu time spent up to now is        3.3 secs

     total energy              =     -49.51747394 Ry
     Harris-Foulkes estimate   =     -49.51747702 Ry
     estimated scf accuracy    <       0.00000544 Ry

     iteration #  7     ecut=    20.00 Ry     beta=0.30
     Davidson diagonalization with overlap
     ethr =  2.10E-09,  avg # of iterations =  4.8

     total cpu time spent up to now is        3.4 secs

     total energy              =     -49.51747505 Ry
     Harris-Foulkes estimate   =     -49.51747504 Ry
     estimated scf accuracy    <       0.00000010 Ry

     iteration #  8     ecut=    20.00 Ry     beta=0.30
     Davidson diagonalization with overlap
     ethr =  8.48E-10,  avg # of iterations =  1.0

     total cpu time spent up to now is        3.5 secs

     total energy              =     -49.51747504 Ry
     Harris-Foulkes estimate   =     -49.51747505 Ry
     estimated scf accuracy    <       0.00000011 Ry

     iteration #  9     ecut=    20.00 Ry     beta=0.30
     Davidson diagonalization with overlap
     ethr =  8.48E-10,  avg # of iterations =  1.0

     total cpu time spent up to now is        3.6 secs

     total energy              =     -49.51747511 Ry
     Harris-Foulkes estimate   =     -49.51747505 Ry
     estimated scf accuracy    <       0.00000009 Ry

     iteration # 10     ecut=    20.00 Ry     beta=0.30
     Davidson diagonalization with overlap
     ethr =  7.83E-10,  avg # of iterations =  1.0

     total cpu time spent up to now is        3.7 secs

     total energy              =     -49.51747499 Ry
     Harris-Foulkes estimate   =     -49.51747511 Ry
     estimated scf accuracy    <       0.00000023 Ry

     iteration # 11     ecut=    20.00 Ry     beta=0.30
     Davidson diagonalization with overlap
     ethr =  7.83E-10,  avg # of iterations =  2.8

     total cpu time spent up to now is        3.8 secs

     End of self-consistent calculation

          k = 0.0833 0.0833 0.0000 (  3999 PWs)   bands (ev):

   -11.8515  -8.2762  -8.2762  -6.5680  -6.5680  -5.7827  -4.7911  -3.9192
    -2.6233  -2.5528

          k = 0.0833 0.2500 0.0000 (  4011 PWs)   bands (ev):

   -11.6034  -9.4087  -8.0320  -6.3403  -5.8897  -5.5452  -4.9966  -4.4371
    -3.4802  -2.3222

          k = 0.0833 0.4167 0.0000 (  4016 PWs)   bands (ev):

   -11.1092 -10.3738  -7.5464  -6.8267  -5.8889  -5.2332  -5.0731  -4.3749
    -3.1619  -1.8644

          k = 0.2500 0.2500 0.0000 (  4007 PWs)   bands (ev):

   -11.3556  -9.1644  -9.1644  -7.0100  -5.3080  -4.7747  -4.7747  -3.4626
    -3.2465  -3.2465

          k = 0.2500 0.4167 0.0000 (  4019 PWs)   bands (ev):

   -10.8621 -10.1278  -8.6780  -7.9559  -4.8367  -4.3448  -4.1395  -3.7627
    -2.9624  -2.7812

          k = 0.4167 0.4167 0.0000 (  4005 PWs)   bands (ev):

   -10.3700  -9.6383  -9.6383  -8.9103  -4.3661  -3.6709  -3.6709  -2.9780
    -2.6148  -2.5515

     the Fermi energy is    -4.7534 ev

!    total energy              =     -49.51747504 Ry
     Harris-Foulkes estimate   =     -49.51747503 Ry
     estimated scf accuracy    <          3.2E-10 Ry

     The total energy is the sum of the following terms:

     one-electron contribution =    -144.55338122 Ry
     hartree contribution      =      72.61463532 Ry
     xc contribution           =     -39.20495651 Ry
     ewald contribution        =      61.64193118 Ry
     smearing contrib. (-TS)   =      -0.00036974 Ry
     pot.stat. contrib. (-muN) =      -0.01533406 Ry

     convergence has been achieved in  11 iterations

     bfgs converged in   3 scf cycles and   2 bfgs steps
     (criteria: energy <  1.0E-04 Ry, force <  1.0E-03 Ry/Bohr)
     (criteria: force on FCP <  1.0E-02 eV)

     End of BFGS Geometry Optimization

     Final grand-energy   =     -49.5174750357 Ry
Begin final coordinates

ATOMIC_POSITIONS (angstrom)
Al       0.000000000   0.000000000   0.000000000
Al       2.863450038   0.000000000   0.000000000
Al       0.000000000   2.863450038   0.000000000
Al       2.863450038   2.863450038   0.000000000
End final coordinates


     FCP: Total Charge =     0.043913
     FCP: Fermi Energy =    -0.349365 Ry (   -4.753353 eV)
     FCP: Target Level =    -0.349192 Ry (   -4.751000 eV)
     FCP: Force on FCP =     0.000173 Ry (    0.002353 eV)
     FCP: Force Thr.   =     0.000735 Ry (    0.010000 eV)



     Writing output data file Al001_bc2_FCP_vm05.save

     init_run     :      0.18s CPU      0.19s WALL (       1 calls)
     electrons    :      3.24s CPU      3.32s WALL (       3 calls)
     update_pot   :      0.15s CPU      0.18s WALL (       2 calls)

     Called by init_run:
     wfcinit      :      0.05s CPU      0.05s WALL (       1 calls)
     potinit      :      0.03s CPU      0.03s WALL (       1 calls)

     Called by electrons:
     c_bands      :      2.30s CPU      2.36s WALL (      29 calls)
     sum_band     :      0.53s CPU      0.54s WALL (      29 calls)
     v_of_rho     :      0.31s CPU      0.31s WALL (      29 calls)
     newd         :      0.09s CPU      0.09s WALL (      29 calls)
     mix_rho      :      0.04s CPU      0.04s WALL (      29 calls)

     Called by c_bands:
     init_us_2    :      0.05s CPU      0.05s WALL (     354 calls)
     cegterg      :      2.22s CPU      2.27s WALL (     174 calls)

     Called by sum_band:
     sum_band:bec :      0.00s CPU      0.00s WALL (     174 calls)
     addusdens    :      0.10s CPU      0.10s WALL (      29 calls)

     Called by *egterg:
     h_psi        :      1.76s CPU      1.80s WALL (     636 calls)
     s_psi        :      0.04s CPU      0.04s WALL (     636 calls)
     g_psi        :      0.01s CPU      0.01s WALL (     456 calls)
     cdiaghg      :      0.11s CPU      0.11s WALL (     600 calls)

     Called by h_psi:
     h_psi:pot    :      1.74s CPU      1.78s WALL (     636 calls)
     h_psi:calbec :      0.07s CPU      0.07s WALL (     636 calls)
     vloc_psi     :      1.63s CPU      1.66s WALL (     636 calls)
     add_vuspsi   :      0.04s CPU      0.04s WALL (     636 calls)

     General routines
     calbec       :      0.09s CPU      0.09s WALL (     810 calls)
     fft          :      0.16s CPU      0.16s WALL (     385 calls)
     fftw         :      1.71s CPU      1.74s WALL (   11264 calls)
     davcio       :      0.00s CPU      0.00s WALL (       6 calls)

     Parallel routines
     fft_scatter  :      0.90s CPU      0.91s WALL (   11649 calls)

     PWSCF        :     3.66s CPU         3.82s WALL


   This run was terminated on:  23:10: 8   4Feb2021            

=------------------------------------------------------------------------------=
   JOB DONE.
=------------------------------------------------------------------------------=
