
     Program PWSCF v.6.1 starts on 11Jan2021 at 17:28:54 

     This program is part of the open-source Quantum ESPRESSO suite
     for quantum simulation of materials; please cite
         "P. Giannozzi et al., J. Phys.:Condens. Matter 21 395502 (2009);
          URL http://www.quantum-espresso.org", 
     in publications or presentations arising from this work. More details at
     http://www.quantum-espresso.org/quote

     Parallel version (MPI), running on     4 processors
     R & G space division:  proc/nbgrp/npool/nimage =       4
     Waiting for input...
     Reading input from standard input

     Current dimensions of program PWSCF are:
     Max number of different atomic species (ntypx) = 10
     Max number of k-points (npk) =  40000
     Max angular momentum in pseudopotentials (lmaxx) =  3
     Message from routine iosys:
     mixing_mode=plain is ignored, 'TF' is adopted
     Message from routine iosys:
     accurate eigenvalues are required for all states: diago_full_acc=.TRUE.
     Message from routine iosys:
     eigenvalues have to be converged: diago_rmm_conv=.TRUE.

     Subspace diagonalization in iterative solution of the eigenvalue problem:
     a serial algorithm will be used

     Found symmetry operation: I + ( -0.5000  0.0000  0.0000)
     This is a supercell, fractional translations are disabled

     Parallelization info
     --------------------
     sticks:   dense  smooth     PW     G-vecs:    dense   smooth      PW
     Min         187     187     54                 8037     8037    1261
     Max         188     188     56                 8044     8044    1262
     Sum         749     749    221                32157    32157    5047



     bravais-lattice index     =            0
     lattice parameter (alat)  =      10.8223  a.u.
     unit-cell volume          =    2655.9321 (a.u.)^3
     number of atoms/cell      =            4
     number of atomic types    =            1
     number of electrons       =        12.00
     number of Kohn-Sham states=           10
     kinetic-energy cutoff     =      20.0000  Ry
     charge density cutoff     =      80.0000  Ry
     convergence threshold     =      1.0E-06
     mixing beta               =       0.1000
     number of iterations used =            8  TF        mixing
     Exchange-correlation      =  SLA  PW   PBE  PBE ( 1  4  3  4 0 0)

     Effective Screening Medium Method
     =================================
     Boundary Conditions: Metal-Slab-Metal
     total charge in unit cell        =   0.0000
     grid points for fit at edges     =        4 


     >>>>> Grand-Canonical SCF is activated <<<<<
     Initial Total Charge  =     0.000000 e
     Target Fermi Energy   =    -4.751000 eV
     Thr. of Fermi Energy  =     0.010000 eV
     Wave-shift of Kerker  =     0.400000 bohr^-1
     Wave-shift of Hartree =     1.500000 bohr^-1
     Mixing Rate of Fermi  =     0.050000

     celldm(1)=  10.822273  celldm(2)=   0.000000  celldm(3)=   0.000000
     celldm(4)=   0.000000  celldm(5)=   0.000000  celldm(6)=   0.000000

     crystal axes: (cart. coord. in units of alat)
               a(1) = (   1.000000   0.000000   0.000000 )  
               a(2) = (   0.000000   1.000000   0.000000 )  
               a(3) = (   0.000000   0.000000   2.095374 )  

     reciprocal axes: (cart. coord. in units 2 pi/alat)
               b(1) = (  1.000000  0.000000  0.000000 )  
               b(2) = (  0.000000  1.000000  0.000000 )  
               b(3) = (  0.000000  0.000000  0.477242 )  


     PseudoPot. # 1 for Al read from file:
     /home1/gler/share/qe-6.1-rism/pseudo/Al.pbe-n-van.UPF
     MD5 check sum: b11ded24487aef5bc42d5c7a2e22a7b6
     Pseudo is Ultrasoft + core correction, Zval =  3.0
     Generated by new atomic code, or converted to UPF format
     Using radial grid of  893 points,  2 beta functions with: 
                l(1) =   0
                l(2) =   1
     Q(r) pseudized with  8 coefficients,  rinner =    0.900   0.900   0.900


     atomic species   valence    mass     pseudopotential
        Al             3.00    26.98154     Al( 1.00)

     16 Sym. Ops., with inversion, found



   Cartesian axes

     site n.     atom                  positions (alat units)
         1           Al  tau(   1) = (   0.0000000   0.0000000   0.0000000  )
         2           Al  tau(   2) = (   0.5000000   0.0000000   0.0000000  )
         3           Al  tau(   3) = (   0.0000000   0.5000000   0.0000000  )
         4           Al  tau(   4) = (   0.5000000   0.5000000   0.0000000  )

     number of k points=     6  Methfessel-Paxton smearing, width (Ry)=  0.0300
                       cart. coord. in units 2pi/alat
        k(    1) = (   0.0833333   0.0833333   0.0000000), wk =   0.2222222
        k(    2) = (   0.0833333   0.2500000   0.0000000), wk =   0.4444444
        k(    3) = (   0.0833333   0.4166667   0.0000000), wk =   0.4444444
        k(    4) = (   0.2500000   0.2500000   0.0000000), wk =   0.2222222
        k(    5) = (   0.2500000   0.4166667   0.0000000), wk =   0.4444444
        k(    6) = (   0.4166667   0.4166667   0.0000000), wk =   0.2222222

     Dense  grid:    32157 G-vectors     FFT dimensions: (  32,  32,  72)

     Estimated max dynamical RAM per process >       8.41MB

     Estimated total allocated dynamical RAM >      33.64MB

     Check: negative/imaginary core charge=   -0.000012    0.000000

     Initial potential from superposition of free atoms
     Check: negative starting charge=   -0.000169

     starting charge   11.99014, renormalised to   12.00000

     negative rho (up, down):  1.687E-04 0.000E+00
     Starting wfc are   16 randomized atomic wfcs

     total cpu time spent up to now is        0.5 secs

     per-process dynamical memory:     6.6 Mb

     Self-consistent Calculation

     iteration #  1     ecut=    20.00 Ry     beta=0.10
     RMM-DIIS diagonalization
     ethr =  1.00E-05,  avg # of iterations =  8.5

     negative rho (up, down):  8.223E-05 0.000E+00

     total cpu time spent up to now is        1.2 secs

     total energy              =     -49.53925717 Ry
     Harris-Foulkes estimate   =     -49.54387791 Ry
     estimated scf accuracy    <       0.02422278 Ry

     total charge of GC-SCF    =      -0.00160255 e
     the Fermi energy          =      -5.16079942 eV
                        (error :       0.40979942 eV)

     iteration #  2     ecut=    20.00 Ry     beta=0.10
     RMM-DIIS diagonalization
     ethr =  1.00E-05,  avg # of iterations =  2.5

     total cpu time spent up to now is        1.4 secs

     total energy              =     -49.50812935 Ry
     Harris-Foulkes estimate   =     -49.53904188 Ry
     estimated scf accuracy    <       0.01994282 Ry

     total charge of GC-SCF    =      -0.01584217 e
     the Fermi energy          =      -5.09478791 eV
                        (error :       0.34378791 eV)

     iteration #  3     ecut=    20.00 Ry     beta=0.10
     RMM-DIIS diagonalization
     ethr =  1.00E-05,  avg # of iterations =  5.3

     total cpu time spent up to now is        1.8 secs

     total energy              =     -49.51771593 Ry
     Harris-Foulkes estimate   =     -49.51749618 Ry
     estimated scf accuracy    <       0.00027792 Ry

     total charge of GC-SCF    =      -0.01024880 e
     the Fermi energy          =      -4.44667339 eV
                        (error :       0.30432661 eV)

     iteration #  4     ecut=    20.00 Ry     beta=0.10
     RMM-DIIS diagonalization
     ethr =  2.31E-06,  avg # of iterations =  3.4

     total cpu time spent up to now is        2.0 secs

     total energy              =     -49.51763168 Ry
     Harris-Foulkes estimate   =     -49.51763588 Ry
     estimated scf accuracy    <       0.00021523 Ry

     total charge of GC-SCF    =       0.00102678 e
     the Fermi energy          =      -4.52015983 eV
                        (error :       0.23084017 eV)

     iteration #  5     ecut=    20.00 Ry     beta=0.10
     RMM-DIIS diagonalization
     ethr =  1.79E-06,  avg # of iterations =  3.5

     total cpu time spent up to now is        2.3 secs

     total energy              =     -49.51782395 Ry
     Harris-Foulkes estimate   =     -49.51782731 Ry
     estimated scf accuracy    <       0.00001351 Ry

     total charge of GC-SCF    =       0.00095421 e
     the Fermi energy          =      -4.53111504 eV
                        (error :       0.21988496 eV)

     iteration #  6     ecut=    20.00 Ry     beta=0.10
     RMM-DIIS diagonalization
     ethr =  1.13E-07,  avg # of iterations =  5.3

     total cpu time spent up to now is        2.6 secs

     total energy              =     -49.51791055 Ry
     Harris-Foulkes estimate   =     -49.51784880 Ry
     estimated scf accuracy    <       0.00001482 Ry

     total charge of GC-SCF    =       0.01674282 e
     the Fermi energy          =      -4.52396756 eV
                        (error :       0.22703244 eV)

     iteration #  7     ecut=    20.00 Ry     beta=0.10
     RMM-DIIS diagonalization
     ethr =  1.13E-07,  avg # of iterations =  3.5

     total cpu time spent up to now is        2.9 secs

     total energy              =     -49.51794016 Ry
     Harris-Foulkes estimate   =     -49.51794281 Ry
     estimated scf accuracy    <       0.00000417 Ry

     total charge of GC-SCF    =       0.01911484 e
     the Fermi energy          =      -4.59624067 eV
                        (error :       0.15475933 eV)

     iteration #  8     ecut=    20.00 Ry     beta=0.10
     RMM-DIIS diagonalization
     ethr =  3.48E-08,  avg # of iterations =  3.9

     total cpu time spent up to now is        3.1 secs

     total energy              =     -49.51780194 Ry
     Harris-Foulkes estimate   =     -49.51793787 Ry
     estimated scf accuracy    <       0.00000339 Ry

     total charge of GC-SCF    =       0.03503023 e
     the Fermi energy          =      -4.61021506 eV
                        (error :       0.14078494 eV)

     iteration #  9     ecut=    20.00 Ry     beta=0.10
     RMM-DIIS diagonalization
     ethr =  2.83E-08,  avg # of iterations =  3.9

     total cpu time spent up to now is        3.4 secs

     total energy              =     -49.51777026 Ry
     Harris-Foulkes estimate   =     -49.51780143 Ry
     estimated scf accuracy    <       0.00000051 Ry

     total charge of GC-SCF    =       0.03635532 e
     the Fermi energy          =      -4.70517199 eV
                        (error :       0.04582801 eV)

     iteration # 10     ecut=    20.00 Ry     beta=0.10
     RMM-DIIS diagonalization
     ethr =  4.26E-09,  avg # of iterations =  4.4

     total cpu time spent up to now is        3.6 secs

     total energy              =     -49.51757460 Ry
     Harris-Foulkes estimate   =     -49.51777054 Ry
     estimated scf accuracy    <       0.00000070 Ry

     total charge of GC-SCF    =       0.04248234 e
     the Fermi energy          =      -4.71180457 eV
                        (error :       0.03919543 eV)

     iteration # 11     ecut=    20.00 Ry     beta=0.10
     RMM-DIIS diagonalization
     ethr =  4.26E-09,  avg # of iterations =  3.6

     total cpu time spent up to now is        3.9 secs

     End of self-consistent calculation

          k = 0.0833 0.0833 0.0000 (  3999 PWs)   bands (ev):

   -11.8418  -8.2664  -8.2664  -6.5583  -6.5583  -5.7730  -4.7812  -3.9094
    -2.6133  -2.5430

          k = 0.0833 0.2500 0.0000 (  4011 PWs)   bands (ev):

   -11.5936  -9.3989  -8.0222  -6.3306  -5.8799  -5.5355  -4.9869  -4.4273
    -3.4705  -2.3123

          k = 0.0833 0.4167 0.0000 (  4016 PWs)   bands (ev):

   -11.0994 -10.3640  -7.5366  -6.8169  -5.8792  -5.2234  -5.0634  -4.3652
    -3.1522  -1.8546

          k = 0.2500 0.2500 0.0000 (  4007 PWs)   bands (ev):

   -11.3459  -9.1546  -9.1546  -7.0002  -5.2983  -4.7649  -4.7649  -3.4529
    -3.2367  -3.2367

          k = 0.2500 0.4167 0.0000 (  4019 PWs)   bands (ev):

   -10.8523 -10.1180  -8.6682  -7.9461  -4.8269  -4.3350  -4.1297  -3.7529
    -2.9527  -2.7714

          k = 0.4167 0.4167 0.0000 (  4005 PWs)   bands (ev):

   -10.3603  -9.6285  -9.6285  -8.9006  -4.3564  -3.6611  -3.6611  -2.9685
    -2.6050  -2.5418

     the Fermi energy is    -4.7436 ev

!    total energy              =     -49.51747501 Ry
     Harris-Foulkes estimate   =     -49.51757507 Ry
     estimated scf accuracy    <       0.00000011 Ry

     total charge of GC-SCF    =       0.04387503 e

     The total energy is the sum of the following terms:

     one-electron contribution =    -144.55379478 Ry
     hartree contribution      =      72.61503118 Ry
     xc contribution           =     -39.20495218 Ry
     ewald contribution        =      61.64193118 Ry
     smearing contrib. (-TS)   =      -0.00036959 Ry
     pot.stat. contrib. (-muN) =      -0.01532081 Ry

     convergence has been achieved in  11 iterations

     Forces acting on atoms (cartesian axes, Ry/au):

     atom    1 type  1   force =     0.00000000    0.00000000    0.00000000
     atom    2 type  1   force =     0.00000000    0.00000000    0.00000000
     atom    3 type  1   force =     0.00000000    0.00000000    0.00000000
     atom    4 type  1   force =     0.00000000    0.00000000    0.00000000

     Total force =     0.000000     Total SCF correction =     0.000000

     Writing output data file Al001_bc2_GCSCF_vp05.save

     init_run     :      0.48s CPU      0.49s WALL (       1 calls)
     electrons    :      3.30s CPU      3.36s WALL (       1 calls)
     forces       :      0.19s CPU      0.20s WALL (       1 calls)

     Called by init_run:
     wfcinit      :      0.10s CPU      0.11s WALL (       1 calls)
     potinit      :      0.08s CPU      0.09s WALL (       1 calls)

     Called by electrons:
     c_bands      :      2.49s CPU      2.52s WALL (      11 calls)
     sum_band     :      0.42s CPU      0.42s WALL (      11 calls)
     v_of_rho     :      0.31s CPU      0.30s WALL (      12 calls)
     newd         :      0.08s CPU      0.08s WALL (      12 calls)
     mix_rho      :      0.03s CPU      0.04s WALL (      11 calls)

     Called by c_bands:
     init_us_2    :      0.06s CPU      0.05s WALL (     144 calls)
     crmmdiagg    :      1.68s CPU      1.70s WALL (      88 calls)
     wfcrot       :      0.83s CPU      0.84s WALL (      88 calls)
     gsorth       :      0.04s CPU      0.04s WALL (      66 calls)

     Called by sum_band:
     sum_band:bec :      0.00s CPU      0.00s WALL (      66 calls)
     addusdens    :      0.08s CPU      0.08s WALL (      11 calls)

     Called by *rmmdiagg:
     h_psi        :      2.15s CPU      2.16s WALL (     333 calls)
     s_psi        :      0.04s CPU      0.06s WALL (     333 calls)
     cdiaghg      :      0.01s CPU      0.01s WALL (      88 calls)

     Called by h_psi:
     h_psi:pot    :      2.13s CPU      2.15s WALL (     333 calls)
     h_psi:calbec :      0.06s CPU      0.07s WALL (     333 calls)
     vloc_psi     :      2.01s CPU      2.02s WALL (     333 calls)
     add_vuspsi   :      0.06s CPU      0.06s WALL (     333 calls)

     General routines
     calbec       :      0.09s CPU      0.09s WALL (     423 calls)
     fft          :      0.11s CPU      0.11s WALL (     166 calls)
     fftw         :      2.01s CPU      2.04s WALL (    6052 calls)
     davcio       :      0.00s CPU      0.00s WALL (       6 calls)

     Parallel routines
     fft_scatter  :      0.49s CPU      0.50s WALL (    6218 calls)

     PWSCF        :     4.07s CPU         4.23s WALL


   This run was terminated on:  17:28:58  11Jan2021            

=------------------------------------------------------------------------------=
   JOB DONE.
=------------------------------------------------------------------------------=
