
     Program PWSCF v.6.1 starts on 11Jan2021 at 17:29: 4 

     This program is part of the open-source Quantum ESPRESSO suite
     for quantum simulation of materials; please cite
         "P. Giannozzi et al., J. Phys.:Condens. Matter 21 395502 (2009);
          URL http://www.quantum-espresso.org", 
     in publications or presentations arising from this work. More details at
     http://www.quantum-espresso.org/quote

     Parallel version (MPI), running on     4 processors
     R & G space division:  proc/nbgrp/npool/nimage =       4
     Waiting for input...
     Reading input from standard input

     Current dimensions of program PWSCF are:
     Max number of different atomic species (ntypx) = 10
     Max number of k-points (npk) =  40000
     Max angular momentum in pseudopotentials (lmaxx) =  3
     Message from routine iosys:
     mixing_mode=plain is ignored, 'TF' is adopted
     Message from routine iosys:
     accurate eigenvalues are required for all states: diago_full_acc=.TRUE.
     Message from routine iosys:
     eigenvalues have to be converged: diago_rmm_conv=.TRUE.

     Subspace diagonalization in iterative solution of the eigenvalue problem:
     a serial algorithm will be used

     Found symmetry operation: I + ( -0.5000  0.0000  0.0000)
     This is a supercell, fractional translations are disabled

     Parallelization info
     --------------------
     sticks:   dense  smooth     PW     G-vecs:    dense   smooth      PW
     Min         187     187     54                 8037     8037    1261
     Max         188     188     56                 8044     8044    1262
     Sum         749     749    221                32157    32157    5047



     bravais-lattice index     =            0
     lattice parameter (alat)  =      10.8223  a.u.
     unit-cell volume          =    2655.9321 (a.u.)^3
     number of atoms/cell      =            4
     number of atomic types    =            1
     number of electrons       =        12.00
     number of Kohn-Sham states=           10
     kinetic-energy cutoff     =      20.0000  Ry
     charge density cutoff     =      80.0000  Ry
     convergence threshold     =      1.0E-06
     mixing beta               =       0.1000
     number of iterations used =            8  TF        mixing
     Exchange-correlation      =  SLA  PW   PBE  PBE ( 1  4  3  4 0 0)

     Effective Screening Medium Method
     =================================
     Boundary Conditions: Vacuum-Slab-Metal
     total charge in unit cell        =   0.0000
     grid points for fit at edges     =        4 


     >>>>> Grand-Canonical SCF is activated <<<<<
     Initial Total Charge  =     0.000000 e
     Target Fermi Energy   =    -4.249000 eV
     Thr. of Fermi Energy  =     0.010000 eV
     Wave-shift of Kerker  =     0.400000 bohr^-1
     Wave-shift of Hartree =     1.500000 bohr^-1
     Mixing Rate of Fermi  =     0.050000

     celldm(1)=  10.822273  celldm(2)=   0.000000  celldm(3)=   0.000000
     celldm(4)=   0.000000  celldm(5)=   0.000000  celldm(6)=   0.000000

     crystal axes: (cart. coord. in units of alat)
               a(1) = (   1.000000   0.000000   0.000000 )  
               a(2) = (   0.000000   1.000000   0.000000 )  
               a(3) = (   0.000000   0.000000   2.095374 )  

     reciprocal axes: (cart. coord. in units 2 pi/alat)
               b(1) = (  1.000000  0.000000  0.000000 )  
               b(2) = (  0.000000  1.000000  0.000000 )  
               b(3) = (  0.000000  0.000000  0.477242 )  


     PseudoPot. # 1 for Al read from file:
     /home1/gler/share/qe-6.1-rism/pseudo/Al.pbe-n-van.UPF
     MD5 check sum: b11ded24487aef5bc42d5c7a2e22a7b6
     Pseudo is Ultrasoft + core correction, Zval =  3.0
     Generated by new atomic code, or converted to UPF format
     Using radial grid of  893 points,  2 beta functions with: 
                l(1) =   0
                l(2) =   1
     Q(r) pseudized with  8 coefficients,  rinner =    0.900   0.900   0.900


     atomic species   valence    mass     pseudopotential
        Al             3.00    26.98154     Al( 1.00)

      8 Sym. Ops. (no inversion) found



   Cartesian axes

     site n.     atom                  positions (alat units)
         1           Al  tau(   1) = (   0.0000000   0.0000000   0.0000000  )
         2           Al  tau(   2) = (   0.5000000   0.0000000   0.0000000  )
         3           Al  tau(   3) = (   0.0000000   0.5000000   0.0000000  )
         4           Al  tau(   4) = (   0.5000000   0.5000000   0.0000000  )

     number of k points=     6  Methfessel-Paxton smearing, width (Ry)=  0.0300
                       cart. coord. in units 2pi/alat
        k(    1) = (   0.0833333   0.0833333   0.0000000), wk =   0.2222222
        k(    2) = (   0.0833333   0.2500000   0.0000000), wk =   0.4444444
        k(    3) = (   0.0833333   0.4166667   0.0000000), wk =   0.4444444
        k(    4) = (   0.2500000   0.2500000   0.0000000), wk =   0.2222222
        k(    5) = (   0.2500000   0.4166667   0.0000000), wk =   0.4444444
        k(    6) = (   0.4166667   0.4166667   0.0000000), wk =   0.2222222

     Dense  grid:    32157 G-vectors     FFT dimensions: (  32,  32,  72)

     Estimated max dynamical RAM per process >       8.41MB

     Estimated total allocated dynamical RAM >      33.64MB

     Check: negative/imaginary core charge=   -0.000012    0.000000

     Initial potential from superposition of free atoms
     Check: negative starting charge=   -0.000169

     starting charge   11.99014, renormalised to   12.00000

     negative rho (up, down):  1.687E-04 0.000E+00
     Starting wfc are   16 randomized atomic wfcs

     total cpu time spent up to now is        0.5 secs

     per-process dynamical memory:     6.6 Mb

     Self-consistent Calculation

     iteration #  1     ecut=    20.00 Ry     beta=0.10
     RMM-DIIS diagonalization
     ethr =  1.00E-05,  avg # of iterations =  8.5

     negative rho (up, down):  8.397E-05 0.000E+00

     total cpu time spent up to now is        1.2 secs

     total energy              =     -49.54650383 Ry
     Harris-Foulkes estimate   =     -49.55306635 Ry
     estimated scf accuracy    <       0.02492550 Ry

     total charge of GC-SCF    =      -0.00343776 e
     the Fermi energy          =      -5.13569942 eV
                        (error :       0.88669942 eV)

     iteration #  2     ecut=    20.00 Ry     beta=0.10
     RMM-DIIS diagonalization
     ethr =  1.00E-05,  avg # of iterations =  2.5

     total cpu time spent up to now is        1.4 secs

     total energy              =     -49.50242600 Ry
     Harris-Foulkes estimate   =     -49.54519181 Ry
     estimated scf accuracy    <       0.02038809 Ry

     total charge of GC-SCF    =      -0.03258394 e
     the Fermi energy          =      -4.98923469 eV
                        (error :       0.74023469 eV)

     iteration #  3     ecut=    20.00 Ry     beta=0.10
     RMM-DIIS diagonalization
     ethr =  1.00E-05,  avg # of iterations =  5.9

     total cpu time spent up to now is        1.8 secs

     total energy              =     -49.51636128 Ry
     Harris-Foulkes estimate   =     -49.51944287 Ry
     estimated scf accuracy    <       0.00047082 Ry

     total charge of GC-SCF    =      -0.02300758 e
     the Fermi energy          =      -3.70144808 eV
                        (error :       0.54755192 eV)

     iteration #  4     ecut=    20.00 Ry     beta=0.10
     RMM-DIIS diagonalization
     ethr =  3.92E-06,  avg # of iterations =  3.6

     total cpu time spent up to now is        2.1 secs

     total energy              =     -49.51522620 Ry
     Harris-Foulkes estimate   =     -49.51595706 Ry
     estimated scf accuracy    <       0.00023843 Ry

     total charge of GC-SCF    =      -0.01976549 e
     the Fermi energy          =      -4.02659365 eV
                        (error :       0.22240635 eV)

     iteration #  5     ecut=    20.00 Ry     beta=0.10
     RMM-DIIS diagonalization
     ethr =  1.98E-06,  avg # of iterations =  3.5

     total cpu time spent up to now is        2.4 secs

     total energy              =     -49.51461701 Ry
     Harris-Foulkes estimate   =     -49.51523008 Ry
     estimated scf accuracy    <       0.00012095 Ry

     total charge of GC-SCF    =      -0.01774164 e
     the Fermi energy          =      -4.09784682 eV
                        (error :       0.15115318 eV)

     iteration #  6     ecut=    20.00 Ry     beta=0.10
     RMM-DIIS diagonalization
     ethr =  1.01E-06,  avg # of iterations =  4.4

     total cpu time spent up to now is        2.7 secs

     total energy              =     -49.51478987 Ry
     Harris-Foulkes estimate   =     -49.51538142 Ry
     estimated scf accuracy    <       0.00013947 Ry

     total charge of GC-SCF    =      -0.01475683 e
     the Fermi energy          =      -3.99431621 eV
                        (error :       0.25468379 eV)

     iteration #  7     ecut=    20.00 Ry     beta=0.10
     RMM-DIIS diagonalization
     ethr =  1.01E-06,  avg # of iterations =  3.2

     total cpu time spent up to now is        2.9 secs

     total energy              =     -49.51453026 Ry
     Harris-Foulkes estimate   =     -49.51465842 Ry
     estimated scf accuracy    <       0.00006476 Ry

     total charge of GC-SCF    =      -0.01354534 e
     the Fermi energy          =      -4.08220275 eV
                        (error :       0.16679725 eV)

     iteration #  8     ecut=    20.00 Ry     beta=0.10
     RMM-DIIS diagonalization
     ethr =  5.39E-07,  avg # of iterations =  3.9

     total cpu time spent up to now is        3.1 secs

     total energy              =     -49.51431574 Ry
     Harris-Foulkes estimate   =     -49.51457123 Ry
     estimated scf accuracy    <       0.00002077 Ry

     total charge of GC-SCF    =      -0.00879211 e
     the Fermi energy          =      -4.10514656 eV
                        (error :       0.14385344 eV)

     iteration #  9     ecut=    20.00 Ry     beta=0.10
     RMM-DIIS diagonalization
     ethr =  1.73E-07,  avg # of iterations =  4.5

     total cpu time spent up to now is        3.4 secs

     total energy              =     -49.51470099 Ry
     Harris-Foulkes estimate   =     -49.51429028 Ry
     estimated scf accuracy    <       0.00000612 Ry

     total charge of GC-SCF    =      -0.00729848 e
     the Fermi energy          =      -4.17693592 eV
                        (error :       0.07206408 eV)

     iteration # 10     ecut=    20.00 Ry     beta=0.10
     RMM-DIIS diagonalization
     ethr =  5.10E-08,  avg # of iterations =  3.3

     total cpu time spent up to now is        3.6 secs

     total energy              =     -49.51507452 Ry
     Harris-Foulkes estimate   =     -49.51470533 Ry
     estimated scf accuracy    <       0.00000337 Ry

     total charge of GC-SCF    =      -0.00386620 e
     the Fermi energy          =      -4.18245285 eV
                        (error :       0.06654715 eV)

     iteration # 11     ecut=    20.00 Ry     beta=0.10
     RMM-DIIS diagonalization
     ethr =  2.81E-08,  avg # of iterations =  3.8

     total cpu time spent up to now is        3.8 secs

     total energy              =     -49.51577319 Ry
     Harris-Foulkes estimate   =     -49.51506826 Ry
     estimated scf accuracy    <       0.00000039 Ry

     total charge of GC-SCF    =      -0.00228761 e
     the Fermi energy          =      -4.22609184 eV
                        (error :       0.02290816 eV)

     iteration # 12     ecut=    20.00 Ry     beta=0.10
     RMM-DIIS diagonalization
     ethr =  3.25E-09,  avg # of iterations =  8.5

     total cpu time spent up to now is        4.3 secs

     total energy              =     -49.51618821 Ry
     Harris-Foulkes estimate   =     -49.51577610 Ry
     estimated scf accuracy    <       0.00000289 Ry

     total charge of GC-SCF    =      -0.00162484 e
     the Fermi energy          =      -4.23657409 eV
                        (error :       0.01242591 eV)

     iteration # 13     ecut=    20.00 Ry     beta=0.10
     RMM-DIIS diagonalization
     ethr =  3.25E-09,  avg # of iterations =  6.9

     total cpu time spent up to now is        4.7 secs

     total energy              =     -49.51619231 Ry
     Harris-Foulkes estimate   =     -49.51619309 Ry
     estimated scf accuracy    <       0.00000007 Ry

     total charge of GC-SCF    =      -0.00163106 e
     the Fermi energy          =      -4.23622982 eV
                        (error :       0.01277018 eV)

     iteration # 14     ecut=    20.00 Ry     beta=0.10
     RMM-DIIS diagonalization
     ethr =  5.83E-10,  avg # of iterations =  4.6

     total cpu time spent up to now is        5.0 secs

     total energy              =     -49.51666723 Ry
     Harris-Foulkes estimate   =     -49.51619229 Ry
     estimated scf accuracy    <       0.00000003 Ry

     total charge of GC-SCF    =      -0.00035455 e
     the Fermi energy          =      -4.23651463 eV
                        (error :       0.01248537 eV)

     iteration # 15     ecut=    20.00 Ry     beta=0.10
     RMM-DIIS diagonalization
     ethr =  2.85E-10,  avg # of iterations =  6.8

     total cpu time spent up to now is        5.4 secs

     End of self-consistent calculation

          k = 0.0833 0.0833 0.0000 (  3999 PWs)   bands (ev):

   -11.3472  -7.7717  -7.7717  -6.0632  -6.0632  -5.3078  -4.2859  -3.4129
    -2.1198  -2.0723

          k = 0.0833 0.2500 0.0000 (  4011 PWs)   bands (ev):

   -11.0990  -8.9043  -7.5275  -5.8354  -5.3849  -5.0701  -4.4917  -3.9315
    -3.0027  -1.8414

          k = 0.0833 0.4167 0.0000 (  4016 PWs)   bands (ev):

   -10.6048  -9.8694  -7.0418  -6.3221  -5.3840  -4.7280  -4.5976  -3.8987
    -2.6568  -1.3833

          k = 0.2500 0.2500 0.0000 (  4007 PWs)   bands (ev):

   -10.8513  -8.6599  -8.6599  -6.5053  -4.8327  -4.2697  -4.2697  -2.9563
    -2.7687  -2.7687

          k = 0.2500 0.4167 0.0000 (  4019 PWs)   bands (ev):

   -10.3577  -9.6234  -8.1735  -7.4514  -4.3610  -3.8396  -3.6631  -3.2571
    -2.4572  -2.3030

          k = 0.4167 0.4167 0.0000 (  4005 PWs)   bands (ev):

    -9.8656  -9.1339  -9.1339  -8.4058  -3.8900  -3.1940  -3.1940  -2.5006
    -2.1092  -2.0451

     the Fermi energy is    -4.2465 ev

!    total energy              =     -49.51663176 Ry
     Harris-Foulkes estimate   =     -49.51666718 Ry
     estimated scf accuracy    <          5.7E-09 Ry

     total charge of GC-SCF    =       0.00011612 e

     The total energy is the sum of the following terms:

     one-electron contribution =    -320.17327449 Ry
     hartree contribution      =     160.64548323 Ry
     xc contribution           =     -39.22069412 Ry
     ewald contribution        =     149.23211567 Ry
     smearing contrib. (-TS)   =      -0.00022578 Ry
     pot.stat. contrib. (-muN) =      -0.00003626 Ry

     convergence has been achieved in  15 iterations

     Forces acting on atoms (cartesian axes, Ry/au):

     atom    1 type  1   force =     0.00000000    0.00000000   -0.00000304
     atom    2 type  1   force =     0.00000000    0.00000000   -0.00000304
     atom    3 type  1   force =     0.00000000    0.00000000   -0.00000304
     atom    4 type  1   force =     0.00000000    0.00000000   -0.00000304

     Total force =     0.000006     Total SCF correction =     0.000171
     SCF correction compared to forces is large: reduce conv_thr to get better values

     Writing output data file Al001_bc3_GCSCF_v00.save

     init_run     :      0.48s CPU      0.50s WALL (       1 calls)
     electrons    :      4.82s CPU      4.88s WALL (       1 calls)
     forces       :      0.19s CPU      0.19s WALL (       1 calls)

     Called by init_run:
     wfcinit      :      0.10s CPU      0.11s WALL (       1 calls)
     potinit      :      0.08s CPU      0.09s WALL (       1 calls)

     Called by electrons:
     c_bands      :      3.75s CPU      3.78s WALL (      15 calls)
     sum_band     :      0.55s CPU      0.56s WALL (      15 calls)
     v_of_rho     :      0.38s CPU      0.38s WALL (      16 calls)
     newd         :      0.10s CPU      0.10s WALL (      16 calls)
     mix_rho      :      0.06s CPU      0.06s WALL (      15 calls)

     Called by c_bands:
     init_us_2    :      0.07s CPU      0.07s WALL (     192 calls)
     crmmdiagg    :      2.62s CPU      2.64s WALL (     126 calls)
     wfcrot       :      1.13s CPU      1.14s WALL (     126 calls)
     gsorth       :      0.04s CPU      0.05s WALL (      90 calls)

     Called by sum_band:
     sum_band:bec :      0.00s CPU      0.00s WALL (      90 calls)
     addusdens    :      0.10s CPU      0.11s WALL (      15 calls)

     Called by *rmmdiagg:
     h_psi        :      3.18s CPU      3.21s WALL (     547 calls)
     s_psi        :      0.08s CPU      0.08s WALL (     547 calls)
     cdiaghg      :      0.01s CPU      0.01s WALL (     126 calls)

     Called by h_psi:
     h_psi:pot    :      3.17s CPU      3.19s WALL (     547 calls)
     h_psi:calbec :      0.11s CPU      0.10s WALL (     547 calls)
     vloc_psi     :      2.98s CPU      3.00s WALL (     547 calls)
     add_vuspsi   :      0.08s CPU      0.08s WALL (     547 calls)

     General routines
     calbec       :      0.13s CPU      0.13s WALL (     661 calls)
     fft          :      0.14s CPU      0.14s WALL (     218 calls)
     fftw         :      2.98s CPU      2.99s WALL (    9180 calls)
     davcio       :      0.00s CPU      0.00s WALL (       6 calls)

     Parallel routines
     fft_scatter  :      0.73s CPU      0.74s WALL (    9398 calls)

     PWSCF        :     5.56s CPU         5.75s WALL


   This run was terminated on:  17:29:10  11Jan2021            

=------------------------------------------------------------------------------=
   JOB DONE.
=------------------------------------------------------------------------------=
