
     Program PWSCF v.6.1 starts on  4Feb2021 at 23:10:19 

     This program is part of the open-source Quantum ESPRESSO suite
     for quantum simulation of materials; please cite
         "P. Giannozzi et al., J. Phys.:Condens. Matter 21 395502 (2009);
          URL http://www.quantum-espresso.org", 
     in publications or presentations arising from this work. More details at
     http://www.quantum-espresso.org/quote

     Parallel version (MPI & OpenMP), running on       4 processor cores
     Number of MPI processes:                 4
     Threads/MPI process:                     1
     R & G space division:  proc/nbgrp/npool/nimage =       4
     Waiting for input...
     Reading input from standard input

     Current dimensions of program PWSCF are:
     Max number of different atomic species (ntypx) = 10
     Max number of k-points (npk) =  40000
     Max angular momentum in pseudopotentials (lmaxx) =  3

     Subspace diagonalization in iterative solution of the eigenvalue problem:
     a serial algorithm will be used

     Found symmetry operation: I + ( -0.5000  0.0000  0.0000)
     This is a supercell, fractional translations are disabled

     Parallelization info
     --------------------
     sticks:   dense  smooth     PW     G-vecs:    dense   smooth      PW
     Min         187     187     54                 8037     8037    1261
     Max         188     188     56                 8044     8044    1262
     Sum         749     749    221                32157    32157    5047



     bravais-lattice index     =            0
     lattice parameter (alat)  =      10.8223  a.u.
     unit-cell volume          =    2655.9321 (a.u.)^3
     number of atoms/cell      =            4
     number of atomic types    =            1
     number of electrons       =        12.00
     number of Kohn-Sham states=           10
     kinetic-energy cutoff     =      20.0000  Ry
     charge density cutoff     =      80.0000  Ry
     convergence threshold     =      1.0E-06
     mixing beta               =       0.3000
     number of iterations used =            8  plain     mixing
     Exchange-correlation      =  SLA  PW   PBE  PBE ( 1  4  3  4 0 0)
     nstep                     =           50


     Effective Screening Medium Method
     =================================
     Boundary Conditions: Vacuum-Slab-Metal
     total charge in unit cell        =   0.0000
     grid points for fit at edges     =        4 


     >>>> FCP Relaxation is activated <<<<<
     Initial Total Charge =     0.000000 e
     Target Fermi Energy  =    -0.312296 Ry
                          =    -4.249000 eV

     celldm(1)=  10.822273  celldm(2)=   0.000000  celldm(3)=   0.000000
     celldm(4)=   0.000000  celldm(5)=   0.000000  celldm(6)=   0.000000

     crystal axes: (cart. coord. in units of alat)
               a(1) = (   1.000000   0.000000   0.000000 )  
               a(2) = (   0.000000   1.000000   0.000000 )  
               a(3) = (   0.000000   0.000000   2.095374 )  

     reciprocal axes: (cart. coord. in units 2 pi/alat)
               b(1) = (  1.000000  0.000000  0.000000 )  
               b(2) = (  0.000000  1.000000  0.000000 )  
               b(3) = (  0.000000  0.000000  0.477242 )  


     PseudoPot. # 1 for Al read from file:
     /Users/otani/Program/q-e/git-worktrees/qe-6.1-rism/pseudo/Al.pbe-n-van.UPF
     MD5 check sum: cbc97ad259b400557db688b98a6ada97
     Pseudo is Ultrasoft + core correction, Zval =  3.0
     Generated by new atomic code, or converted to UPF format
     Using radial grid of  893 points,  2 beta functions with: 
                l(1) =   0
                l(2) =   1
     Q(r) pseudized with  8 coefficients,  rinner =    0.900   0.900   0.900


     atomic species   valence    mass     pseudopotential
        Al             3.00    26.98154     Al( 1.00)

      8 Sym. Ops. (no inversion) found



   Cartesian axes

     site n.     atom                  positions (alat units)
         1           Al  tau(   1) = (   0.0000000   0.0000000   0.0000000  )
         2           Al  tau(   2) = (   0.5000000   0.0000000   0.0000000  )
         3           Al  tau(   3) = (   0.0000000   0.5000000   0.0000000  )
         4           Al  tau(   4) = (   0.5000000   0.5000000   0.0000000  )

     number of k points=     6  Methfessel-Paxton smearing, width (Ry)=  0.0300
                       cart. coord. in units 2pi/alat
        k(    1) = (   0.0833333   0.0833333   0.0000000), wk =   0.2222222
        k(    2) = (   0.0833333   0.2500000   0.0000000), wk =   0.4444444
        k(    3) = (   0.0833333   0.4166667   0.0000000), wk =   0.4444444
        k(    4) = (   0.2500000   0.2500000   0.0000000), wk =   0.2222222
        k(    5) = (   0.2500000   0.4166667   0.0000000), wk =   0.4444444
        k(    6) = (   0.4166667   0.4166667   0.0000000), wk =   0.2222222

     Dense  grid:    32157 G-vectors     FFT dimensions: (  32,  32,  72)

     Estimated max dynamical RAM per process >       7.08MB

     Estimated total allocated dynamical RAM >      28.32MB

     Check: negative/imaginary core charge=   -0.000012    0.000000

     Initial potential from superposition of free atoms
     Check: negative starting charge=   -0.000169

     starting charge   11.99014, renormalised to   12.00000

     negative rho (up, down):  1.687E-04 0.000E+00
     Starting wfc are   16 randomized atomic wfcs

     total cpu time spent up to now is        0.2 secs

     Self-consistent Calculation

     iteration #  1     ecut=    20.00 Ry     beta=0.30
     Davidson diagonalization with overlap
     ethr =  1.00E-02,  avg # of iterations =  2.8

     Threshold (ethr) on eigenvalues was too large:
     Diagonalizing with lowered threshold

     Davidson diagonalization with overlap
     ethr =  1.97E-04,  avg # of iterations =  8.2

     negative rho (up, down):  9.252E-05 0.000E+00

     total cpu time spent up to now is        0.6 secs

     total energy              =     -49.52185221 Ry
     Harris-Foulkes estimate   =     -49.53872234 Ry
     estimated scf accuracy    <       0.06966459 Ry

     iteration #  2     ecut=    20.00 Ry     beta=0.30
     Davidson diagonalization with overlap
     ethr =  5.81E-04,  avg # of iterations =  1.0

     negative rho (up, down):  2.512E-06 0.000E+00

     total cpu time spent up to now is        0.7 secs

     total energy              =     -49.51167355 Ry
     Harris-Foulkes estimate   =     -49.52338214 Ry
     estimated scf accuracy    <       0.02665876 Ry

     iteration #  3     ecut=    20.00 Ry     beta=0.30
     Davidson diagonalization with overlap
     ethr =  2.22E-04,  avg # of iterations =  1.0

     total cpu time spent up to now is        0.7 secs

     total energy              =     -49.51472272 Ry
     Harris-Foulkes estimate   =     -49.51489714 Ry
     estimated scf accuracy    <       0.00050532 Ry

     iteration #  4     ecut=    20.00 Ry     beta=0.30
     Davidson diagonalization with overlap
     ethr =  4.21E-06,  avg # of iterations = 13.2

     total cpu time spent up to now is        1.0 secs

     total energy              =     -49.51656743 Ry
     Harris-Foulkes estimate   =     -49.51658424 Ry
     estimated scf accuracy    <       0.00011065 Ry

     iteration #  5     ecut=    20.00 Ry     beta=0.30
     Davidson diagonalization with overlap
     ethr =  9.22E-07,  avg # of iterations =  5.8

     total cpu time spent up to now is        1.2 secs

     total energy              =     -49.51656492 Ry
     Harris-Foulkes estimate   =     -49.51666414 Ry
     estimated scf accuracy    <       0.00017861 Ry

     iteration #  6     ecut=    20.00 Ry     beta=0.30
     Davidson diagonalization with overlap
     ethr =  9.22E-07,  avg # of iterations =  3.3

     total cpu time spent up to now is        1.3 secs

     total energy              =     -49.51661000 Ry
     Harris-Foulkes estimate   =     -49.51665136 Ry
     estimated scf accuracy    <       0.00012250 Ry

     iteration #  7     ecut=    20.00 Ry     beta=0.30
     Davidson diagonalization with overlap
     ethr =  9.22E-07,  avg # of iterations =  1.0

     total cpu time spent up to now is        1.4 secs

     End of self-consistent calculation

          k = 0.0833 0.0833 0.0000 (  3999 PWs)   bands (ev):

   -11.3498  -7.7743  -7.7743  -6.0659  -6.0659  -5.3101  -4.2885  -3.4155
    -2.1218  -2.0746

          k = 0.0833 0.2500 0.0000 (  4011 PWs)   bands (ev):

   -11.1017  -8.9069  -7.5301  -5.8381  -5.3875  -5.0724  -4.4943  -3.9342
    -3.0044  -1.8437

          k = 0.0833 0.4167 0.0000 (  4016 PWs)   bands (ev):

   -10.6074  -9.8720  -7.0444  -6.3247  -5.3867  -4.7307  -4.5999  -3.9009
    -2.6594  -1.3855

          k = 0.2500 0.2500 0.0000 (  4007 PWs)   bands (ev):

   -10.8539  -8.6625  -8.6625  -6.5079  -4.8350  -4.2723  -4.2723  -2.9587
    -2.7705  -2.7704

          k = 0.2500 0.4167 0.0000 (  4019 PWs)   bands (ev):

   -10.3603  -9.6260  -8.1761  -7.4540  -4.3633  -3.8419  -3.6652  -3.2590
    -2.4598  -2.3047

          k = 0.4167 0.4167 0.0000 (  4005 PWs)   bands (ev):

    -9.8683  -9.1365  -9.1365  -8.4085  -3.8922  -3.1962  -3.1962  -2.5022
    -2.1118  -2.0473

     the Fermi energy is    -4.2490 ev

!    total energy              =     -49.51662414 Ry
     Harris-Foulkes estimate   =     -49.51662415 Ry
     estimated scf accuracy    <       0.00000072 Ry

     The total energy is the sum of the following terms:

     one-electron contribution =    -320.17167573 Ry
     hartree contribution      =     160.64299558 Ry
     xc contribution           =     -39.21983442 Ry
     ewald contribution        =     149.23211567 Ry
     smearing contrib. (-TS)   =      -0.00022524 Ry
     pot.stat. contrib. (-muN) =      -0.00000000 Ry

     convergence has been achieved in   7 iterations

     BFGS Geometry Optimization

     bfgs converged in   1 scf cycles and   0 bfgs steps
     (criteria: energy <  1.0E-04 Ry, force <  1.0E-03 Ry/Bohr)
     (criteria: force on FCP <  1.0E-02 eV)

     End of BFGS Geometry Optimization

     Final grand-energy   =     -49.5166241416 Ry
Begin final coordinates

ATOMIC_POSITIONS (angstrom)
Al       0.000000000   0.000000000   0.000000000
Al       2.863450038   0.000000000   0.000000000
Al       0.000000000   2.863450038   0.000000000
Al       2.863450038   2.863450038   0.000000000
End final coordinates


     FCP: Total Charge =     0.000000
     FCP: Fermi Energy =    -0.312293 Ry (   -4.248957 eV)
     FCP: Target Level =    -0.312296 Ry (   -4.249000 eV)
     FCP: Force on FCP =    -0.000003 Ry (   -0.000043 eV)
     FCP: Force Thr.   =     0.000735 Ry (    0.010000 eV)



     Writing output data file Al001_bc3_FCP_v00.save

     init_run     :      0.17s CPU      0.17s WALL (       1 calls)
     electrons    :      1.11s CPU      1.15s WALL (       1 calls)

     Called by init_run:
     wfcinit      :      0.05s CPU      0.05s WALL (       1 calls)
     potinit      :      0.02s CPU      0.03s WALL (       1 calls)

     Called by electrons:
     c_bands      :      0.87s CPU      0.89s WALL (       8 calls)
     sum_band     :      0.14s CPU      0.14s WALL (       8 calls)
     v_of_rho     :      0.08s CPU      0.08s WALL (       8 calls)
     newd         :      0.03s CPU      0.03s WALL (       8 calls)
     mix_rho      :      0.01s CPU      0.01s WALL (       8 calls)

     Called by c_bands:
     init_us_2    :      0.01s CPU      0.02s WALL (     102 calls)
     cegterg      :      0.85s CPU      0.87s WALL (      48 calls)

     Called by sum_band:
     sum_band:bec :      0.00s CPU      0.00s WALL (      48 calls)
     addusdens    :      0.03s CPU      0.03s WALL (       8 calls)

     Called by *egterg:
     h_psi        :      0.66s CPU      0.68s WALL (     272 calls)
     s_psi        :      0.01s CPU      0.01s WALL (     272 calls)
     g_psi        :      0.01s CPU      0.01s WALL (     218 calls)
     cdiaghg      :      0.05s CPU      0.05s WALL (     260 calls)

     Called by h_psi:
     h_psi:pot    :      0.66s CPU      0.67s WALL (     272 calls)
     h_psi:calbec :      0.03s CPU      0.03s WALL (     272 calls)
     vloc_psi     :      0.61s CPU      0.63s WALL (     272 calls)
     add_vuspsi   :      0.02s CPU      0.02s WALL (     272 calls)

     General routines
     calbec       :      0.03s CPU      0.03s WALL (     320 calls)
     fft          :      0.04s CPU      0.04s WALL (     106 calls)
     fftw         :      0.61s CPU      0.63s WALL (    4174 calls)
     davcio       :      0.00s CPU      0.00s WALL (       6 calls)

     Parallel routines
     fft_scatter  :      0.32s CPU      0.32s WALL (    4280 calls)

     PWSCF        :     1.32s CPU         1.40s WALL


   This run was terminated on:  23:10:20   4Feb2021            

=------------------------------------------------------------------------------=
   JOB DONE.
=------------------------------------------------------------------------------=
