
     Program PWSCF v.6.1 starts on  4Feb2021 at 23: 9: 7 

     This program is part of the open-source Quantum ESPRESSO suite
     for quantum simulation of materials; please cite
         "P. Giannozzi et al., J. Phys.:Condens. Matter 21 395502 (2009);
          URL http://www.quantum-espresso.org", 
     in publications or presentations arising from this work. More details at
     http://www.quantum-espresso.org/quote

     Parallel version (MPI & OpenMP), running on       4 processor cores
     Number of MPI processes:                 4
     Threads/MPI process:                     1
     R & G space division:  proc/nbgrp/npool/nimage =       4
     Waiting for input...
     Reading input from standard input

     Current dimensions of program PWSCF are:
     Max number of different atomic species (ntypx) = 10
     Max number of k-points (npk) =  40000
     Max angular momentum in pseudopotentials (lmaxx) =  3

     Subspace diagonalization in iterative solution of the eigenvalue problem:
     a serial algorithm will be used

     Found symmetry operation: I + ( -0.5000  0.0000  0.0000)
     This is a supercell, fractional translations are disabled

     Parallelization info
     --------------------
     sticks:   dense  smooth     PW     G-vecs:    dense   smooth      PW
     Min         187     187     54                 8037     8037    1261
     Max         188     188     56                 8044     8044    1262
     Sum         749     749    221                32157    32157    5047



     bravais-lattice index     =            0
     lattice parameter (alat)  =      10.8223  a.u.
     unit-cell volume          =    2655.9321 (a.u.)^3
     number of atoms/cell      =            4
     number of atomic types    =            1
     number of electrons       =        12.00
     number of Kohn-Sham states=           10
     kinetic-energy cutoff     =      20.0000  Ry
     charge density cutoff     =      80.0000  Ry
     convergence threshold     =      1.0E-06
     mixing beta               =       0.3000
     number of iterations used =            8  plain     mixing
     Exchange-correlation      =  SLA  PW   PBE  PBE ( 1  4  3  4 0 0)

     Effective Screening Medium Method
     =================================
     Boundary Conditions: Metal-Slab-Metal
     total charge in unit cell        =   0.0000
     field strength                   =   0.0019 Ry/a.u.
     grid points for fit at edges     =        4 


     celldm(1)=  10.822273  celldm(2)=   0.000000  celldm(3)=   0.000000
     celldm(4)=   0.000000  celldm(5)=   0.000000  celldm(6)=   0.000000

     crystal axes: (cart. coord. in units of alat)
               a(1) = (   1.000000   0.000000   0.000000 )  
               a(2) = (   0.000000   1.000000   0.000000 )  
               a(3) = (   0.000000   0.000000   2.095374 )  

     reciprocal axes: (cart. coord. in units 2 pi/alat)
               b(1) = (  1.000000  0.000000  0.000000 )  
               b(2) = (  0.000000  1.000000  0.000000 )  
               b(3) = (  0.000000  0.000000  0.477242 )  


     PseudoPot. # 1 for Al read from file:
     /Users/otani/Program/q-e/git-worktrees/qe-6.1-rism/pseudo/Al.pbe-n-van.UPF
     MD5 check sum: cbc97ad259b400557db688b98a6ada97
     Pseudo is Ultrasoft + core correction, Zval =  3.0
     Generated by new atomic code, or converted to UPF format
     Using radial grid of  893 points,  2 beta functions with: 
                l(1) =   0
                l(2) =   1
     Q(r) pseudized with  8 coefficients,  rinner =    0.900   0.900   0.900


     atomic species   valence    mass     pseudopotential
        Al             3.00    26.98154     Al( 1.00)

      8 Sym. Ops. (no inversion) found



   Cartesian axes

     site n.     atom                  positions (alat units)
         1           Al  tau(   1) = (   0.0000000   0.0000000   0.0000000  )
         2           Al  tau(   2) = (   0.5000000   0.0000000   0.0000000  )
         3           Al  tau(   3) = (   0.0000000   0.5000000   0.0000000  )
         4           Al  tau(   4) = (   0.5000000   0.5000000   0.0000000  )

     number of k points=     6  Methfessel-Paxton smearing, width (Ry)=  0.0300
                       cart. coord. in units 2pi/alat
        k(    1) = (   0.0833333   0.0833333   0.0000000), wk =   0.2222222
        k(    2) = (   0.0833333   0.2500000   0.0000000), wk =   0.4444444
        k(    3) = (   0.0833333   0.4166667   0.0000000), wk =   0.4444444
        k(    4) = (   0.2500000   0.2500000   0.0000000), wk =   0.2222222
        k(    5) = (   0.2500000   0.4166667   0.0000000), wk =   0.4444444
        k(    6) = (   0.4166667   0.4166667   0.0000000), wk =   0.2222222

     Dense  grid:    32157 G-vectors     FFT dimensions: (  32,  32,  72)

     Estimated max dynamical RAM per process >       7.08MB

     Estimated total allocated dynamical RAM >      28.32MB

     Check: negative/imaginary core charge=   -0.000012    0.000000

     Initial potential from superposition of free atoms
     Check: negative starting charge=   -0.000169

     starting charge   11.99014, renormalised to   12.00000

     negative rho (up, down):  1.687E-04 0.000E+00
     Starting wfc are   16 randomized atomic wfcs

     total cpu time spent up to now is        0.3 secs

     Self-consistent Calculation

     iteration #  1     ecut=    20.00 Ry     beta=0.30
     Davidson diagonalization with overlap
     ethr =  1.00E-02,  avg # of iterations =  2.5

     Threshold (ethr) on eigenvalues was too large:
     Diagonalizing with lowered threshold

     Davidson diagonalization with overlap
     ethr =  3.62E-04,  avg # of iterations =  4.2

     negative rho (up, down):  9.415E-05 0.000E+00

     total cpu time spent up to now is        0.5 secs

     total energy              =     -49.52102612 Ry
     Harris-Foulkes estimate   =     -49.54066903 Ry
     estimated scf accuracy    <       0.07914854 Ry

     iteration #  2     ecut=    20.00 Ry     beta=0.30
     Davidson diagonalization with overlap
     ethr =  6.60E-04,  avg # of iterations =  1.0

     negative rho (up, down):  9.200E-06 0.000E+00

     total cpu time spent up to now is        0.6 secs

     total energy              =     -49.51193627 Ry
     Harris-Foulkes estimate   =     -49.52317187 Ry
     estimated scf accuracy    <       0.02680381 Ry

     iteration #  3     ecut=    20.00 Ry     beta=0.30
     Davidson diagonalization with overlap
     ethr =  2.23E-04,  avg # of iterations =  1.3

     negative rho (up, down):  9.067E-07 0.000E+00

     total cpu time spent up to now is        0.7 secs

     total energy              =     -49.51555913 Ry
     Harris-Foulkes estimate   =     -49.51578711 Ry
     estimated scf accuracy    <       0.00074664 Ry

     iteration #  4     ecut=    20.00 Ry     beta=0.30
     Davidson diagonalization with overlap
     ethr =  6.22E-06,  avg # of iterations =  6.0

     negative rho (up, down):  5.228E-08 0.000E+00

     total cpu time spent up to now is        0.9 secs

     total energy              =     -49.51669634 Ry
     Harris-Foulkes estimate   =     -49.51684026 Ry
     estimated scf accuracy    <       0.00028765 Ry

     iteration #  5     ecut=    20.00 Ry     beta=0.30
     Davidson diagonalization with overlap
     ethr =  2.40E-06,  avg # of iterations =  3.3

     total cpu time spent up to now is        1.0 secs

     total energy              =     -49.51666917 Ry
     Harris-Foulkes estimate   =     -49.51688050 Ry
     estimated scf accuracy    <       0.00038447 Ry

     iteration #  6     ecut=    20.00 Ry     beta=0.30
     Davidson diagonalization with overlap
     ethr =  2.40E-06,  avg # of iterations =  2.0

     total cpu time spent up to now is        1.1 secs

     total energy              =     -49.51675247 Ry
     Harris-Foulkes estimate   =     -49.51677076 Ry
     estimated scf accuracy    <       0.00004650 Ry

     iteration #  7     ecut=    20.00 Ry     beta=0.30
     Davidson diagonalization with overlap
     ethr =  3.87E-07,  avg # of iterations =  2.0

     total cpu time spent up to now is        1.2 secs

     total energy              =     -49.51675618 Ry
     Harris-Foulkes estimate   =     -49.51675841 Ry
     estimated scf accuracy    <       0.00000794 Ry

     iteration #  8     ecut=    20.00 Ry     beta=0.30
     Davidson diagonalization with overlap
     ethr =  6.62E-08,  avg # of iterations =  2.5

     total cpu time spent up to now is        1.3 secs

     total energy              =     -49.51675577 Ry
     Harris-Foulkes estimate   =     -49.51675723 Ry
     estimated scf accuracy    <       0.00000316 Ry

     iteration #  9     ecut=    20.00 Ry     beta=0.30
     Davidson diagonalization with overlap
     ethr =  2.64E-08,  avg # of iterations =  2.0

     total cpu time spent up to now is        1.4 secs

     End of self-consistent calculation

          k = 0.0833 0.0833 0.0000 (  3999 PWs)   bands (ev):

   -11.0526  -7.4771  -7.4771  -5.7685  -5.7685  -5.0138  -3.9913  -3.1183
    -1.8252  -1.7782

          k = 0.0833 0.2500 0.0000 (  4011 PWs)   bands (ev):

   -10.8044  -8.6097  -7.2329  -5.5408  -5.0903  -4.7761  -4.1970  -3.6369
    -2.7086  -1.5473

          k = 0.0833 0.4167 0.0000 (  4016 PWs)   bands (ev):

   -10.3102  -9.5748  -6.7472  -6.0275  -5.0893  -4.4334  -4.3036  -3.6047
    -2.3620  -1.0890

          k = 0.2500 0.2500 0.0000 (  4007 PWs)   bands (ev):

   -10.5567  -8.3653  -8.3653  -6.2107  -4.5387  -3.9750  -3.9750  -2.6616
    -2.4746  -2.4746

          k = 0.2500 0.4167 0.0000 (  4019 PWs)   bands (ev):

   -10.0631  -9.3287  -7.8789  -7.1568  -4.0669  -3.5450  -3.3690  -2.9624
    -2.1625  -2.0088

          k = 0.4167 0.4167 0.0000 (  4005 PWs)   bands (ev):

    -9.5710  -8.8393  -8.8392  -8.1112  -3.5960  -2.9000  -2.9000  -2.2061
    -1.8145  -1.7503

     the Fermi energy is    -3.9520 ev

!    total energy              =     -49.51675611 Ry
     Harris-Foulkes estimate   =     -49.51675627 Ry
     estimated scf accuracy    <       0.00000027 Ry

     The total energy is the sum of the following terms:

     one-electron contribution =    -144.73115558 Ry
     hartree contribution      =      73.05457097 Ry
     xc contribution           =     -39.22044019 Ry
     ewald contribution        =      61.38049343 Ry
     smearing contrib. (-TS)   =      -0.00022474 Ry

     convergence has been achieved in   9 iterations

     Forces acting on atoms (cartesian axes, Ry/au):

     atom    1 type  1   force =     0.00000000    0.00000000    0.00000530
     atom    2 type  1   force =     0.00000000    0.00000000    0.00000708
     atom    3 type  1   force =     0.00000000    0.00000000    0.00000708
     atom    4 type  1   force =     0.00000000    0.00000000    0.00000481

     Total force =     0.000012     Total SCF correction =     0.000156
     SCF correction compared to forces is large: reduce conv_thr to get better values

     Writing output data file Al001_bc2_efield.save

     init_run     :      0.19s CPU      0.21s WALL (       1 calls)
     electrons    :      1.05s CPU      1.12s WALL (       1 calls)
     forces       :      0.06s CPU      0.06s WALL (       1 calls)

     Called by init_run:
     wfcinit      :      0.05s CPU      0.06s WALL (       1 calls)
     potinit      :      0.03s CPU      0.03s WALL (       1 calls)

     Called by electrons:
     c_bands      :      0.77s CPU      0.82s WALL (      10 calls)
     sum_band     :      0.16s CPU      0.16s WALL (      10 calls)
     v_of_rho     :      0.09s CPU      0.10s WALL (      10 calls)
     newd         :      0.03s CPU      0.03s WALL (      10 calls)
     mix_rho      :      0.02s CPU      0.02s WALL (      10 calls)

     Called by c_bands:
     init_us_2    :      0.02s CPU      0.02s WALL (     132 calls)
     cegterg      :      0.74s CPU      0.79s WALL (      60 calls)

     Called by sum_band:
     sum_band:bec :      0.00s CPU      0.00s WALL (      60 calls)
     addusdens    :      0.03s CPU      0.04s WALL (      10 calls)

     Called by *egterg:
     h_psi        :      0.60s CPU      0.65s WALL (     227 calls)
     s_psi        :      0.01s CPU      0.01s WALL (     227 calls)
     g_psi        :      0.00s CPU      0.00s WALL (     161 calls)
     cdiaghg      :      0.04s CPU      0.04s WALL (     215 calls)

     Called by h_psi:
     h_psi:pot    :      0.60s CPU      0.64s WALL (     227 calls)
     h_psi:calbec :      0.03s CPU      0.03s WALL (     227 calls)
     vloc_psi     :      0.55s CPU      0.59s WALL (     227 calls)
     add_vuspsi   :      0.02s CPU      0.02s WALL (     227 calls)

     General routines
     calbec       :      0.04s CPU      0.04s WALL (     311 calls)
     fft          :      0.05s CPU      0.05s WALL (     143 calls)
     fftw         :      0.55s CPU      0.59s WALL (    4126 calls)
     davcio       :      0.00s CPU      0.00s WALL (       6 calls)

     Parallel routines
     fft_scatter  :      0.28s CPU      0.30s WALL (    4269 calls)

     PWSCF        :     1.35s CPU         1.47s WALL


   This run was terminated on:  23: 9: 8   4Feb2021            

=------------------------------------------------------------------------------=
   JOB DONE.
=------------------------------------------------------------------------------=
