
     Program PWSCF v.6.1 starts on 11Jan2021 at 17:28:59 

     This program is part of the open-source Quantum ESPRESSO suite
     for quantum simulation of materials; please cite
         "P. Giannozzi et al., J. Phys.:Condens. Matter 21 395502 (2009);
          URL http://www.quantum-espresso.org", 
     in publications or presentations arising from this work. More details at
     http://www.quantum-espresso.org/quote

     Parallel version (MPI), running on     4 processors
     R & G space division:  proc/nbgrp/npool/nimage =       4
     Waiting for input...
     Reading input from standard input

     Current dimensions of program PWSCF are:
     Max number of different atomic species (ntypx) = 10
     Max number of k-points (npk) =  40000
     Max angular momentum in pseudopotentials (lmaxx) =  3
     Message from routine iosys:
     mixing_mode=plain is ignored, 'TF' is adopted
     Message from routine iosys:
     accurate eigenvalues are required for all states: diago_full_acc=.TRUE.
     Message from routine iosys:
     eigenvalues have to be converged: diago_rmm_conv=.TRUE.

     Subspace diagonalization in iterative solution of the eigenvalue problem:
     a serial algorithm will be used

     Found symmetry operation: I + ( -0.5000  0.0000  0.0000)
     This is a supercell, fractional translations are disabled

     Parallelization info
     --------------------
     sticks:   dense  smooth     PW     G-vecs:    dense   smooth      PW
     Min         187     187     54                 8037     8037    1261
     Max         188     188     56                 8044     8044    1262
     Sum         749     749    221                32157    32157    5047



     bravais-lattice index     =            0
     lattice parameter (alat)  =      10.8223  a.u.
     unit-cell volume          =    2655.9321 (a.u.)^3
     number of atoms/cell      =            4
     number of atomic types    =            1
     number of electrons       =        12.00
     number of Kohn-Sham states=           10
     kinetic-energy cutoff     =      20.0000  Ry
     charge density cutoff     =      80.0000  Ry
     convergence threshold     =      1.0E-06
     mixing beta               =       0.1000
     number of iterations used =            8  TF        mixing
     Exchange-correlation      =  SLA  PW   PBE  PBE ( 1  4  3  4 0 0)

     Effective Screening Medium Method
     =================================
     Boundary Conditions: Metal-Slab-Metal
     total charge in unit cell        =   0.0000
     grid points for fit at edges     =        4 


     >>>>> Grand-Canonical SCF is activated <<<<<
     Initial Total Charge  =     0.000000 e
     Target Fermi Energy   =    -3.751000 eV
     Thr. of Fermi Energy  =     0.010000 eV
     Wave-shift of Kerker  =     0.400000 bohr^-1
     Wave-shift of Hartree =     1.500000 bohr^-1
     Mixing Rate of Fermi  =     0.050000

     celldm(1)=  10.822273  celldm(2)=   0.000000  celldm(3)=   0.000000
     celldm(4)=   0.000000  celldm(5)=   0.000000  celldm(6)=   0.000000

     crystal axes: (cart. coord. in units of alat)
               a(1) = (   1.000000   0.000000   0.000000 )  
               a(2) = (   0.000000   1.000000   0.000000 )  
               a(3) = (   0.000000   0.000000   2.095374 )  

     reciprocal axes: (cart. coord. in units 2 pi/alat)
               b(1) = (  1.000000  0.000000  0.000000 )  
               b(2) = (  0.000000  1.000000  0.000000 )  
               b(3) = (  0.000000  0.000000  0.477242 )  


     PseudoPot. # 1 for Al read from file:
     /home1/gler/share/qe-6.1-rism/pseudo/Al.pbe-n-van.UPF
     MD5 check sum: b11ded24487aef5bc42d5c7a2e22a7b6
     Pseudo is Ultrasoft + core correction, Zval =  3.0
     Generated by new atomic code, or converted to UPF format
     Using radial grid of  893 points,  2 beta functions with: 
                l(1) =   0
                l(2) =   1
     Q(r) pseudized with  8 coefficients,  rinner =    0.900   0.900   0.900


     atomic species   valence    mass     pseudopotential
        Al             3.00    26.98154     Al( 1.00)

     16 Sym. Ops., with inversion, found



   Cartesian axes

     site n.     atom                  positions (alat units)
         1           Al  tau(   1) = (   0.0000000   0.0000000   0.0000000  )
         2           Al  tau(   2) = (   0.5000000   0.0000000   0.0000000  )
         3           Al  tau(   3) = (   0.0000000   0.5000000   0.0000000  )
         4           Al  tau(   4) = (   0.5000000   0.5000000   0.0000000  )

     number of k points=     6  Methfessel-Paxton smearing, width (Ry)=  0.0300
                       cart. coord. in units 2pi/alat
        k(    1) = (   0.0833333   0.0833333   0.0000000), wk =   0.2222222
        k(    2) = (   0.0833333   0.2500000   0.0000000), wk =   0.4444444
        k(    3) = (   0.0833333   0.4166667   0.0000000), wk =   0.4444444
        k(    4) = (   0.2500000   0.2500000   0.0000000), wk =   0.2222222
        k(    5) = (   0.2500000   0.4166667   0.0000000), wk =   0.4444444
        k(    6) = (   0.4166667   0.4166667   0.0000000), wk =   0.2222222

     Dense  grid:    32157 G-vectors     FFT dimensions: (  32,  32,  72)

     Estimated max dynamical RAM per process >       8.41MB

     Estimated total allocated dynamical RAM >      33.64MB

     Check: negative/imaginary core charge=   -0.000012    0.000000

     Initial potential from superposition of free atoms
     Check: negative starting charge=   -0.000169

     starting charge   11.99014, renormalised to   12.00000

     negative rho (up, down):  1.687E-04 0.000E+00
     Starting wfc are   16 randomized atomic wfcs

     total cpu time spent up to now is        0.5 secs

     per-process dynamical memory:     6.6 Mb

     Self-consistent Calculation

     iteration #  1     ecut=    20.00 Ry     beta=0.10
     RMM-DIIS diagonalization
     ethr =  1.00E-05,  avg # of iterations =  8.5

     negative rho (up, down):  8.565E-05 0.000E+00

     total cpu time spent up to now is        1.2 secs

     total energy              =     -49.56152322 Ry
     Harris-Foulkes estimate   =     -49.56869210 Ry
     estimated scf accuracy    <       0.02573470 Ry

     total charge of GC-SCF    =      -0.00522374 e
     the Fermi energy          =      -5.11079942 eV
                        (error :       1.35979942 eV)

     iteration #  2     ecut=    20.00 Ry     beta=0.10
     RMM-DIIS diagonalization
     ethr =  1.00E-05,  avg # of iterations =  2.5

     total cpu time spent up to now is        1.4 secs

     total energy              =     -49.50992692 Ry
     Harris-Foulkes estimate   =     -49.55987577 Ry
     estimated scf accuracy    <       0.02108714 Ry

     total charge of GC-SCF    =      -0.05437676 e
     the Fermi energy          =      -4.99265506 eV
                        (error :       1.24165506 eV)

     iteration #  3     ecut=    20.00 Ry     beta=0.10
     RMM-DIIS diagonalization
     ethr =  1.00E-05,  avg # of iterations =  5.8

     total cpu time spent up to now is        1.8 secs

     total energy              =     -49.51804884 Ry
     Harris-Foulkes estimate   =     -49.51760228 Ry
     estimated scf accuracy    <       0.00037830 Ry

     total charge of GC-SCF    =      -0.05138929 e
     the Fermi energy          =      -3.85815562 eV
                        (error :       0.10715562 eV)

     iteration #  4     ecut=    20.00 Ry     beta=0.10
     RMM-DIIS diagonalization
     ethr =  3.14E-06,  avg # of iterations =  3.0

     total cpu time spent up to now is        2.1 secs

     total energy              =     -49.51747562 Ry
     Harris-Foulkes estimate   =     -49.51824812 Ry
     estimated scf accuracy    <       0.00030460 Ry

     total charge of GC-SCF    =      -0.05934579 e
     the Fermi energy          =      -3.92247253 eV
                        (error :       0.17147253 eV)

     iteration #  5     ecut=    20.00 Ry     beta=0.10
     RMM-DIIS diagonalization
     ethr =  2.53E-06,  avg # of iterations =  3.8

     total cpu time spent up to now is        2.3 secs

     total energy              =     -49.51762984 Ry
     Harris-Foulkes estimate   =     -49.51763066 Ry
     estimated scf accuracy    <       0.00000938 Ry

     total charge of GC-SCF    =      -0.05929304 e
     the Fermi energy          =      -3.71693989 eV
                        (error :       0.03406011 eV)

     iteration #  6     ecut=    20.00 Ry     beta=0.10
     RMM-DIIS diagonalization
     ethr =  7.78E-08,  avg # of iterations =  5.7

     total cpu time spent up to now is        2.7 secs

     total energy              =     -49.51768025 Ry
     Harris-Foulkes estimate   =     -49.51763368 Ry
     estimated scf accuracy    <       0.00000685 Ry

     total charge of GC-SCF    =      -0.05814400 e
     the Fermi energy          =      -3.71635806 eV
                        (error :       0.03464194 eV)

     iteration #  7     ecut=    20.00 Ry     beta=0.10
     RMM-DIIS diagonalization
     ethr =  5.68E-08,  avg # of iterations =  2.8

     total cpu time spent up to now is        2.9 secs

     total energy              =     -49.51772525 Ry
     Harris-Foulkes estimate   =     -49.51768976 Ry
     estimated scf accuracy    <       0.00000546 Ry

     total charge of GC-SCF    =      -0.05662485 e
     the Fermi energy          =      -3.70773817 eV
                        (error :       0.04326183 eV)

     iteration #  8     ecut=    20.00 Ry     beta=0.10
     RMM-DIIS diagonalization
     ethr =  4.53E-08,  avg # of iterations =  3.6

     total cpu time spent up to now is        3.1 secs

     total energy              =     -49.51771999 Ry
     Harris-Foulkes estimate   =     -49.51775358 Ry
     estimated scf accuracy    <       0.00000126 Ry

     total charge of GC-SCF    =      -0.05383314 e
     the Fermi energy          =      -3.68767469 eV
                        (error :       0.06332531 eV)

     iteration #  9     ecut=    20.00 Ry     beta=0.10
     RMM-DIIS diagonalization
     ethr =  1.05E-08,  avg # of iterations =  4.4

     total cpu time spent up to now is        3.4 secs

     total energy              =     -49.51767042 Ry
     Harris-Foulkes estimate   =     -49.51773224 Ry
     estimated scf accuracy    <       0.00000302 Ry

     total charge of GC-SCF    =      -0.05102019 e
     the Fermi energy          =      -3.69004218 eV
                        (error :       0.06095782 eV)

     iteration # 10     ecut=    20.00 Ry     beta=0.10
     RMM-DIIS diagonalization
     ethr =  1.05E-08,  avg # of iterations =  3.6

     total cpu time spent up to now is        3.6 secs

     total energy              =     -49.51761214 Ry
     Harris-Foulkes estimate   =     -49.51766775 Ry
     estimated scf accuracy    <       0.00000100 Ry

     total charge of GC-SCF    =      -0.04933111 e
     the Fermi energy          =      -3.71264009 eV
                        (error :       0.03835991 eV)

     iteration # 11     ecut=    20.00 Ry     beta=0.10
     RMM-DIIS diagonalization
     ethr =  8.28E-09,  avg # of iterations =  2.8

     total cpu time spent up to now is        3.8 secs

     total energy              =     -49.51750928 Ry
     Harris-Foulkes estimate   =     -49.51761292 Ry
     estimated scf accuracy    <       0.00000049 Ry

     total charge of GC-SCF    =      -0.04588338 e
     the Fermi energy          =      -3.72000313 eV
                        (error :       0.03099687 eV)

     iteration # 12     ecut=    20.00 Ry     beta=0.10
     RMM-DIIS diagonalization
     ethr =  4.06E-09,  avg # of iterations =  4.3

     total cpu time spent up to now is        4.1 secs

     total energy              =     -49.51747773 Ry
     Harris-Foulkes estimate   =     -49.51750948 Ry
     estimated scf accuracy    <       0.00000016 Ry

     total charge of GC-SCF    =      -0.04476666 e
     the Fermi energy          =      -3.74038296 eV
                        (error :       0.01061704 eV)

     iteration # 13     ecut=    20.00 Ry     beta=0.10
     RMM-DIIS diagonalization
     ethr =  1.30E-09,  avg # of iterations =  3.6

     total cpu time spent up to now is        4.3 secs

     End of self-consistent calculation

          k = 0.0833 0.0833 0.0000 (  3999 PWs)   bands (ev):

   -10.8493  -7.2737  -7.2737  -5.5649  -5.5649  -4.8386  -3.7873  -2.9133
    -1.6227  -1.5975

          k = 0.0833 0.2500 0.0000 (  4011 PWs)   bands (ev):

   -10.6012  -8.4063  -7.0295  -5.3371  -4.8866  -4.6007  -3.9933  -3.4326
    -2.5308  -1.3664

          k = 0.0833 0.4167 0.0000 (  4016 PWs)   bands (ev):

   -10.1069  -9.3714  -6.5437  -5.8239  -4.8856  -4.2294  -4.1278  -3.4282
    -2.1583  -0.9078

          k = 0.2500 0.2500 0.0000 (  4007 PWs)   bands (ev):

   -10.3534  -8.1619  -8.1619  -6.0071  -4.3631  -3.7712  -3.7712  -2.4566
    -2.2966  -2.2966

          k = 0.2500 0.4167 0.0000 (  4019 PWs)   bands (ev):

    -9.8598  -9.1254  -7.6755  -6.9533  -3.8910  -3.3410  -3.1923  -2.7581
    -1.9586  -1.8304

          k = 0.4167 0.4167 0.0000 (  4005 PWs)   bands (ev):

    -9.3677  -8.6359  -8.6359  -7.9078  -3.4196  -2.7228  -2.7228  -2.0287
    -1.6101  -1.5453

     the Fermi energy is    -3.7456 ev

!    total energy              =     -49.51747214 Ry
     Harris-Foulkes estimate   =     -49.51747781 Ry
     estimated scf accuracy    <       0.00000006 Ry

     total charge of GC-SCF    =      -0.04377008 e

     The total energy is the sum of the following terms:

     one-electron contribution =    -145.43282884 Ry
     hartree contribution      =      73.49810304 Ry
     xc contribution           =     -39.23660345 Ry
     ewald contribution        =      61.64193118 Ry
     smearing contrib. (-TS)   =      -0.00014119 Ry
     pot.stat. contrib. (-muN) =       0.01206713 Ry

     convergence has been achieved in  13 iterations

     Forces acting on atoms (cartesian axes, Ry/au):

     atom    1 type  1   force =     0.00000000    0.00000000    0.00000000
     atom    2 type  1   force =     0.00000000    0.00000000    0.00000000
     atom    3 type  1   force =     0.00000000    0.00000000    0.00000000
     atom    4 type  1   force =     0.00000000    0.00000000    0.00000000

     Total force =     0.000000     Total SCF correction =     0.000000

     Writing output data file Al001_bc2_GCSCF_vm05.save

     init_run     :      0.48s CPU      0.50s WALL (       1 calls)
     electrons    :      3.75s CPU      3.81s WALL (       1 calls)
     forces       :      0.19s CPU      0.20s WALL (       1 calls)

     Called by init_run:
     wfcinit      :      0.11s CPU      0.11s WALL (       1 calls)
     potinit      :      0.08s CPU      0.09s WALL (       1 calls)

     Called by electrons:
     c_bands      :      2.80s CPU      2.84s WALL (      13 calls)
     sum_band     :      0.49s CPU      0.49s WALL (      13 calls)
     v_of_rho     :      0.35s CPU      0.35s WALL (      14 calls)
     newd         :      0.09s CPU      0.09s WALL (      14 calls)
     mix_rho      :      0.05s CPU      0.05s WALL (      13 calls)

     Called by c_bands:
     init_us_2    :      0.06s CPU      0.06s WALL (     168 calls)
     crmmdiagg    :      1.85s CPU      1.88s WALL (     102 calls)
     wfcrot       :      0.95s CPU      0.96s WALL (     102 calls)
     gsorth       :      0.05s CPU      0.05s WALL (      78 calls)

     Called by sum_band:
     sum_band:bec :      0.00s CPU      0.00s WALL (      78 calls)
     addusdens    :      0.09s CPU      0.09s WALL (      13 calls)

     Called by *rmmdiagg:
     h_psi        :      2.41s CPU      2.42s WALL (     376 calls)
     s_psi        :      0.06s CPU      0.06s WALL (     376 calls)
     cdiaghg      :      0.01s CPU      0.01s WALL (     102 calls)

     Called by h_psi:
     h_psi:pot    :      2.39s CPU      2.40s WALL (     376 calls)
     h_psi:calbec :      0.06s CPU      0.07s WALL (     376 calls)
     vloc_psi     :      2.25s CPU      2.27s WALL (     376 calls)
     add_vuspsi   :      0.08s CPU      0.06s WALL (     376 calls)

     General routines
     calbec       :      0.08s CPU      0.09s WALL (     478 calls)
     fft          :      0.12s CPU      0.13s WALL (     192 calls)
     fftw         :      2.25s CPU      2.29s WALL (    6844 calls)
     davcio       :      0.00s CPU      0.00s WALL (       6 calls)

     Parallel routines
     fft_scatter  :      0.55s CPU      0.54s WALL (    7036 calls)

     PWSCF        :     4.52s CPU         4.68s WALL


   This run was terminated on:  17:29: 3  11Jan2021            

=------------------------------------------------------------------------------=
   JOB DONE.
=------------------------------------------------------------------------------=
