
     Program PWSCF v.6.1 starts on  4Feb2021 at 23: 8:56 

     This program is part of the open-source Quantum ESPRESSO suite
     for quantum simulation of materials; please cite
         "P. Giannozzi et al., J. Phys.:Condens. Matter 21 395502 (2009);
          URL http://www.quantum-espresso.org", 
     in publications or presentations arising from this work. More details at
     http://www.quantum-espresso.org/quote

     Parallel version (MPI & OpenMP), running on       4 processor cores
     Number of MPI processes:                 4
     Threads/MPI process:                     1
     R & G space division:  proc/nbgrp/npool/nimage =       4
     Waiting for input...
     Reading input from standard input

     Current dimensions of program PWSCF are:
     Max number of different atomic species (ntypx) = 10
     Max number of k-points (npk) =  40000
     Max angular momentum in pseudopotentials (lmaxx) =  3

     Subspace diagonalization in iterative solution of the eigenvalue problem:
     a serial algorithm will be used

     Found symmetry operation: I + ( -0.5000  0.0000  0.0000)
     This is a supercell, fractional translations are disabled

     Parallelization info
     --------------------
     sticks:   dense  smooth     PW     G-vecs:    dense   smooth      PW
     Min         187     187     54                 8037     8037    1261
     Max         188     188     56                 8044     8044    1262
     Sum         749     749    221                32157    32157    5047



     bravais-lattice index     =            0
     lattice parameter (alat)  =      10.8223  a.u.
     unit-cell volume          =    2655.9321 (a.u.)^3
     number of atoms/cell      =            4
     number of atomic types    =            1
     number of electrons       =        12.00
     number of Kohn-Sham states=           10
     kinetic-energy cutoff     =      20.0000  Ry
     charge density cutoff     =      80.0000  Ry
     convergence threshold     =      1.0E-06
     mixing beta               =       0.3000
     number of iterations used =            8  plain     mixing
     Exchange-correlation      =  SLA  PW   PBE  PBE ( 1  4  3  4 0 0)

     Effective Screening Medium Method
     =================================
     Boundary Conditions: Metal-Slab-Metal
     total charge in unit cell        =   0.0000
     grid points for fit at edges     =        4 


     celldm(1)=  10.822273  celldm(2)=   0.000000  celldm(3)=   0.000000
     celldm(4)=   0.000000  celldm(5)=   0.000000  celldm(6)=   0.000000

     crystal axes: (cart. coord. in units of alat)
               a(1) = (   1.000000   0.000000   0.000000 )  
               a(2) = (   0.000000   1.000000   0.000000 )  
               a(3) = (   0.000000   0.000000   2.095374 )  

     reciprocal axes: (cart. coord. in units 2 pi/alat)
               b(1) = (  1.000000  0.000000  0.000000 )  
               b(2) = (  0.000000  1.000000  0.000000 )  
               b(3) = (  0.000000  0.000000  0.477242 )  


     PseudoPot. # 1 for Al read from file:
     /Users/otani/Program/q-e/git-worktrees/qe-6.1-rism/pseudo/Al.pbe-n-van.UPF
     MD5 check sum: cbc97ad259b400557db688b98a6ada97
     Pseudo is Ultrasoft + core correction, Zval =  3.0
     Generated by new atomic code, or converted to UPF format
     Using radial grid of  893 points,  2 beta functions with: 
                l(1) =   0
                l(2) =   1
     Q(r) pseudized with  8 coefficients,  rinner =    0.900   0.900   0.900


     atomic species   valence    mass     pseudopotential
        Al             3.00    26.98154     Al( 1.00)

     16 Sym. Ops., with inversion, found



   Cartesian axes

     site n.     atom                  positions (alat units)
         1           Al  tau(   1) = (   0.0000000   0.0000000   0.0000000  )
         2           Al  tau(   2) = (   0.5000000   0.0000000   0.0000000  )
         3           Al  tau(   3) = (   0.0000000   0.5000000   0.0000000  )
         4           Al  tau(   4) = (   0.5000000   0.5000000   0.0000000  )

     number of k points=     6  Methfessel-Paxton smearing, width (Ry)=  0.0300
                       cart. coord. in units 2pi/alat
        k(    1) = (   0.0833333   0.0833333   0.0000000), wk =   0.2222222
        k(    2) = (   0.0833333   0.2500000   0.0000000), wk =   0.4444444
        k(    3) = (   0.0833333   0.4166667   0.0000000), wk =   0.4444444
        k(    4) = (   0.2500000   0.2500000   0.0000000), wk =   0.2222222
        k(    5) = (   0.2500000   0.4166667   0.0000000), wk =   0.4444444
        k(    6) = (   0.4166667   0.4166667   0.0000000), wk =   0.2222222

     Dense  grid:    32157 G-vectors     FFT dimensions: (  32,  32,  72)

     Estimated max dynamical RAM per process >       7.08MB

     Estimated total allocated dynamical RAM >      28.32MB

     Check: negative/imaginary core charge=   -0.000012    0.000000

     Initial potential from superposition of free atoms
     Check: negative starting charge=   -0.000169

     starting charge   11.99014, renormalised to   12.00000

     negative rho (up, down):  1.687E-04 0.000E+00
     Starting wfc are   16 randomized atomic wfcs

     total cpu time spent up to now is        0.2 secs

     Self-consistent Calculation

     iteration #  1     ecut=    20.00 Ry     beta=0.30
     Davidson diagonalization with overlap
     ethr =  1.00E-02,  avg # of iterations =  2.5

     Threshold (ethr) on eigenvalues was too large:
     Diagonalizing with lowered threshold

     Davidson diagonalization with overlap
     ethr =  3.59E-04,  avg # of iterations =  4.2

     negative rho (up, down):  9.429E-05 0.000E+00

     total cpu time spent up to now is        0.3 secs

     total energy              =     -49.52104702 Ry
     Harris-Foulkes estimate   =     -49.54044966 Ry
     estimated scf accuracy    <       0.07861221 Ry

     iteration #  2     ecut=    20.00 Ry     beta=0.30
     Davidson diagonalization with overlap
     ethr =  6.55E-04,  avg # of iterations =  1.0

     negative rho (up, down):  8.703E-06 0.000E+00

     total cpu time spent up to now is        0.4 secs

     total energy              =     -49.51184710 Ry
     Harris-Foulkes estimate   =     -49.52312089 Ry
     estimated scf accuracy    <       0.02678306 Ry

     iteration #  3     ecut=    20.00 Ry     beta=0.30
     Davidson diagonalization with overlap
     ethr =  2.23E-04,  avg # of iterations =  1.3

     negative rho (up, down):  5.214E-08 0.000E+00

     total cpu time spent up to now is        0.5 secs

     total energy              =     -49.51556000 Ry
     Harris-Foulkes estimate   =     -49.51578601 Ry
     estimated scf accuracy    <       0.00073168 Ry

     iteration #  4     ecut=    20.00 Ry     beta=0.30
     Davidson diagonalization with overlap
     ethr =  6.10E-06,  avg # of iterations =  5.8

     total cpu time spent up to now is        0.6 secs

     total energy              =     -49.51665373 Ry
     Harris-Foulkes estimate   =     -49.51665428 Ry
     estimated scf accuracy    <       0.00001760 Ry

     iteration #  5     ecut=    20.00 Ry     beta=0.30
     Davidson diagonalization with overlap
     ethr =  1.47E-07,  avg # of iterations =  5.0

     total cpu time spent up to now is        0.7 secs

     total energy              =     -49.51666987 Ry
     Harris-Foulkes estimate   =     -49.51666899 Ry
     estimated scf accuracy    <       0.00000853 Ry

     iteration #  6     ecut=    20.00 Ry     beta=0.30
     Davidson diagonalization with overlap
     ethr =  7.11E-08,  avg # of iterations =  2.0

     total cpu time spent up to now is        0.7 secs

     total energy              =     -49.51666905 Ry
     Harris-Foulkes estimate   =     -49.51667092 Ry
     estimated scf accuracy    <       0.00000316 Ry

     iteration #  7     ecut=    20.00 Ry     beta=0.30
     Davidson diagonalization with overlap
     ethr =  2.63E-08,  avg # of iterations =  2.0

     total cpu time spent up to now is        0.8 secs

     End of self-consistent calculation

          k = 0.0833 0.0833 0.0000 (  3999 PWs)   bands (ev):

   -11.3517  -7.7763  -7.7762  -6.0677  -6.0677  -5.3123  -4.2904  -3.4174
    -2.1244  -2.0768

          k = 0.0833 0.2500 0.0000 (  4011 PWs)   bands (ev):

   -11.1036  -8.9088  -7.5321  -5.8399  -5.3894  -5.0746  -4.4962  -3.9360
    -3.0071  -1.8459

          k = 0.0833 0.4167 0.0000 (  4016 PWs)   bands (ev):

   -10.6093  -9.8739  -7.0464  -6.3266  -5.3885  -4.7325  -4.6021  -3.9032
    -2.6611  -1.3876

          k = 0.2500 0.2500 0.0000 (  4007 PWs)   bands (ev):

   -10.8558  -8.6645  -8.6644  -6.5098  -4.8372  -4.2742  -4.2741  -2.9607
    -2.7733  -2.7731

          k = 0.2500 0.4167 0.0000 (  4019 PWs)   bands (ev):

   -10.3622  -9.6279  -8.1780  -7.4559  -4.3655  -3.8441  -3.6676  -3.2615
    -2.4614  -2.3074

          k = 0.4167 0.4167 0.0000 (  4005 PWs)   bands (ev):

    -9.8702  -9.1384  -9.1383  -8.4104  -3.8945  -3.1986  -3.1985  -2.5046
    -2.1135  -2.0494

     the Fermi energy is    -4.2510 ev

!    total energy              =     -49.51666961 Ry
     Harris-Foulkes estimate   =     -49.51666951 Ry
     estimated scf accuracy    <       0.00000007 Ry

     The total energy is the sum of the following terms:

     one-electron contribution =    -144.99434135 Ry
     hartree contribution      =      73.05660570 Ry
     xc contribution           =     -39.22063970 Ry
     ewald contribution        =      61.64193118 Ry
     smearing contrib. (-TS)   =      -0.00022543 Ry

     convergence has been achieved in   7 iterations

     Forces acting on atoms (cartesian axes, Ry/au):

     atom    1 type  1   force =     0.00000000    0.00000000    0.00000000
     atom    2 type  1   force =     0.00000000    0.00000000    0.00000000
     atom    3 type  1   force =     0.00000000    0.00000000    0.00000000
     atom    4 type  1   force =     0.00000000    0.00000000    0.00000000

     Total force =     0.000000     Total SCF correction =     0.000000

     Writing output data file Al001_bc2.save

     init_run     :      0.13s CPU      0.13s WALL (       1 calls)
     electrons    :      0.62s CPU      0.64s WALL (       1 calls)
     forces       :      0.05s CPU      0.06s WALL (       1 calls)

     Called by init_run:
     wfcinit      :      0.03s CPU      0.03s WALL (       1 calls)
     potinit      :      0.02s CPU      0.02s WALL (       1 calls)

     Called by electrons:
     c_bands      :      0.44s CPU      0.46s WALL (       8 calls)
     sum_band     :      0.09s CPU      0.10s WALL (       8 calls)
     v_of_rho     :      0.06s CPU      0.06s WALL (       8 calls)
     newd         :      0.02s CPU      0.02s WALL (       8 calls)
     mix_rho      :      0.01s CPU      0.01s WALL (       8 calls)

     Called by c_bands:
     init_us_2    :      0.01s CPU      0.01s WALL (     108 calls)
     cegterg      :      0.43s CPU      0.44s WALL (      48 calls)

     Called by sum_band:
     sum_band:bec :      0.00s CPU      0.00s WALL (      48 calls)
     addusdens    :      0.02s CPU      0.02s WALL (       8 calls)

     Called by *egterg:
     h_psi        :      0.35s CPU      0.36s WALL (     197 calls)
     s_psi        :      0.01s CPU      0.01s WALL (     197 calls)
     g_psi        :      0.00s CPU      0.00s WALL (     143 calls)
     cdiaghg      :      0.03s CPU      0.03s WALL (     185 calls)

     Called by h_psi:
     h_psi:pot    :      0.34s CPU      0.35s WALL (     197 calls)
     h_psi:calbec :      0.01s CPU      0.01s WALL (     197 calls)
     vloc_psi     :      0.32s CPU      0.33s WALL (     197 calls)
     add_vuspsi   :      0.01s CPU      0.01s WALL (     197 calls)

     General routines
     calbec       :      0.02s CPU      0.02s WALL (     269 calls)
     fft          :      0.03s CPU      0.03s WALL (     117 calls)
     fftw         :      0.33s CPU      0.33s WALL (    3428 calls)
     davcio       :      0.00s CPU      0.00s WALL (       6 calls)

     Parallel routines
     fft_scatter  :      0.15s CPU      0.15s WALL (    3545 calls)

     PWSCF        :     0.84s CPU         0.89s WALL


   This run was terminated on:  23: 8:56   4Feb2021            

=------------------------------------------------------------------------------=
   JOB DONE.
=------------------------------------------------------------------------------=
