
     Program PWSCF v.6.1 starts on  4Feb2021 at 23: 8:17 

     This program is part of the open-source Quantum ESPRESSO suite
     for quantum simulation of materials; please cite
         "P. Giannozzi et al., J. Phys.:Condens. Matter 21 395502 (2009);
          URL http://www.quantum-espresso.org", 
     in publications or presentations arising from this work. More details at
     http://www.quantum-espresso.org/quote

     Parallel version (MPI & OpenMP), running on       4 processor cores
     Number of MPI processes:                 4
     Threads/MPI process:                     1
     R & G space division:  proc/nbgrp/npool/nimage =       4
     Waiting for input...
     Reading input from standard input

     Current dimensions of program PWSCF are:
     Max number of different atomic species (ntypx) = 10
     Max number of k-points (npk) =  40000
     Max angular momentum in pseudopotentials (lmaxx) =  3

     gamma-point specific algorithms are used

     Subspace diagonalization in iterative solution of the eigenvalue problem:
     a serial algorithm will be used


     Parallelization info
     --------------------
     sticks:   dense  smooth     PW     G-vecs:    dense   smooth      PW
     Min        1591     794    198               114643    40525    5074
     Max        1594     797    199               114648    40530    5081
     Sum        6369    3181    793               458581   162113   20303



     bravais-lattice index     =            0
     lattice parameter (alat)  =      20.0000  a.u.
     unit-cell volume          =    9599.9886 (a.u.)^3
     number of atoms/cell      =            3
     number of atomic types    =            2
     number of electrons       =         8.00
     number of Kohn-Sham states=            8
     kinetic-energy cutoff     =      25.0000  Ry
     charge density cutoff     =     200.0000  Ry
     convergence threshold     =      1.0E-06
     mixing beta               =       0.3000
     number of iterations used =            8  plain     mixing
     Exchange-correlation      =  SLA  PW   PBE  PBE ( 1  4  3  4 0 0)

     Effective Screening Medium Method
     =================================
     Boundary Conditions: Vacuum-Slab-Vacuum
     total charge in unit cell        =   0.0000
     grid points for fit at edges     =        4 


     celldm(1)=  19.999992  celldm(2)=   0.000000  celldm(3)=   0.000000
     celldm(4)=   0.000000  celldm(5)=   0.000000  celldm(6)=   0.000000

     crystal axes: (cart. coord. in units of alat)
               a(1) = (   1.000000   0.000000   0.000000 )  
               a(2) = (   0.000000   1.000000   0.000000 )  
               a(3) = (   0.000000   0.000000   1.200000 )  

     reciprocal axes: (cart. coord. in units 2 pi/alat)
               b(1) = (  1.000000  0.000000  0.000000 )  
               b(2) = (  0.000000  1.000000  0.000000 )  
               b(3) = (  0.000000  0.000000  0.833333 )  


     PseudoPot. # 1 for H  read from file:
     /Users/otani/Program/q-e/git-worktrees/qe-6.1-rism/pseudo/H.pbe-van_ak.UPF
     MD5 check sum: a537b41238c433fb4068aaff04c6fb4a
     Pseudo is Ultrasoft, Zval =  1.0
     Generated by new atomic code, or converted to UPF format
     Using radial grid of  615 points,  1 beta functions with: 
                l(1) =   0
     Q(r) pseudized with  8 coefficients,  rinner =    0.800

     PseudoPot. # 2 for O  read from file:
     /Users/otani/Program/q-e/git-worktrees/qe-6.1-rism/pseudo/O.pbe-van_ak.UPF
     MD5 check sum: 572909515f9aa9498032b6eb5528d5f9
     Pseudo is Ultrasoft, Zval =  6.0
     Generated by new atomic code, or converted to UPF format
     Using radial grid of  737 points,  4 beta functions with: 
                l(1) =   0
                l(2) =   0
                l(3) =   1
                l(4) =   1
     Q(r) pseudized with  8 coefficients,  rinner =    0.800   0.800   0.800


     atomic species   valence    mass     pseudopotential
        H              1.00     1.00794     H ( 1.00)
        O              6.00    55.84700     O ( 1.00)

     No symmetry found



   Cartesian axes

     site n.     atom                  positions (alat units)
         1           O   tau(   1) = (   0.0000000   0.5000000   0.0000000  )
         2           H   tau(   2) = (   0.0431388   0.4310286   0.0430783  )
         3           H   tau(   3) = (   0.0366354   0.5764064   0.0359492  )

     number of k points=     1  Methfessel-Paxton smearing, width (Ry)=  0.0300
                       cart. coord. in units 2pi/alat
        k(    1) = (   0.0000000   0.0000000   0.0000000), wk =   2.0000000

     Dense  grid:   229291 G-vectors     FFT dimensions: (  96,  96, 120)

     Smooth grid:    81057 G-vectors     FFT dimensions: (  64,  64,  80)

     Estimated max dynamical RAM per process >      45.72MB

     Estimated total allocated dynamical RAM >     182.89MB

     Initial potential from superposition of free atoms
     Check: negative starting charge=   -0.002904

     starting charge    7.99998, renormalised to    8.00000

     negative rho (up, down):  2.904E-03 0.000E+00
     Starting wfc are    6 randomized atomic wfcs +    2 random wfc

     total cpu time spent up to now is        0.7 secs

     Self-consistent Calculation

     iteration #  1     ecut=    25.00 Ry     beta=0.30
     Davidson diagonalization with overlap
     ethr =  1.00E-02,  avg # of iterations =  6.0

     negative rho (up, down):  2.982E-03 0.000E+00

     total cpu time spent up to now is        1.0 secs

     total energy              =     -34.39090095 Ry
     Harris-Foulkes estimate   =     -34.57070669 Ry
     estimated scf accuracy    <       0.43874640 Ry

     iteration #  2     ecut=    25.00 Ry     beta=0.30
     Davidson diagonalization with overlap
     ethr =  5.48E-03,  avg # of iterations =  2.0

     negative rho (up, down):  4.791E-03 0.000E+00

     total cpu time spent up to now is        1.4 secs

     total energy              =     -34.42174399 Ry
     Harris-Foulkes estimate   =     -34.43846253 Ry
     estimated scf accuracy    <       0.05096548 Ry

     iteration #  3     ecut=    25.00 Ry     beta=0.30
     Davidson diagonalization with overlap
     ethr =  6.37E-04,  avg # of iterations =  5.0

     negative rho (up, down):  7.977E-03 0.000E+00

     total cpu time spent up to now is        1.7 secs

     total energy              =     -34.42750606 Ry
     Harris-Foulkes estimate   =     -34.43227900 Ry
     estimated scf accuracy    <       0.01420385 Ry

     iteration #  4     ecut=    25.00 Ry     beta=0.30
     Davidson diagonalization with overlap
     ethr =  1.78E-04,  avg # of iterations =  2.0

     negative rho (up, down):  1.120E-02 0.000E+00

     total cpu time spent up to now is        2.1 secs

     total energy              =     -34.42748168 Ry
     Harris-Foulkes estimate   =     -34.43083389 Ry
     estimated scf accuracy    <       0.00706932 Ry

     iteration #  5     ecut=    25.00 Ry     beta=0.30
     Davidson diagonalization with overlap
     ethr =  8.84E-05,  avg # of iterations =  4.0

     negative rho (up, down):  9.661E-03 0.000E+00

     total cpu time spent up to now is        2.4 secs

     total energy              =     -34.42883009 Ry
     Harris-Foulkes estimate   =     -34.42884345 Ry
     estimated scf accuracy    <       0.00009756 Ry

     iteration #  6     ecut=    25.00 Ry     beta=0.30
     Davidson diagonalization with overlap
     ethr =  1.22E-06,  avg # of iterations = 14.0

     negative rho (up, down):  8.993E-03 0.000E+00

     total cpu time spent up to now is        2.8 secs

     total energy              =     -34.42884407 Ry
     Harris-Foulkes estimate   =     -34.42885240 Ry
     estimated scf accuracy    <       0.00010313 Ry

     iteration #  7     ecut=    25.00 Ry     beta=0.30
     Davidson diagonalization with overlap
     ethr =  1.22E-06,  avg # of iterations =  1.0

     negative rho (up, down):  8.721E-03 0.000E+00

     total cpu time spent up to now is        3.1 secs

     total energy              =     -34.42877975 Ry
     Harris-Foulkes estimate   =     -34.42884454 Ry
     estimated scf accuracy    <       0.00009217 Ry

     iteration #  8     ecut=    25.00 Ry     beta=0.30
     Davidson diagonalization with overlap
     ethr =  1.15E-06,  avg # of iterations =  3.0

     negative rho (up, down):  8.709E-03 0.000E+00

     total cpu time spent up to now is        3.5 secs

     total energy              =     -34.42881261 Ry
     Harris-Foulkes estimate   =     -34.42888600 Ry
     estimated scf accuracy    <       0.00025351 Ry

     iteration #  9     ecut=    25.00 Ry     beta=0.30
     Davidson diagonalization with overlap
     ethr =  1.15E-06,  avg # of iterations =  2.0

     negative rho (up, down):  8.746E-03 0.000E+00

     total cpu time spent up to now is        3.8 secs

     total energy              =     -34.42882363 Ry
     Harris-Foulkes estimate   =     -34.42882828 Ry
     estimated scf accuracy    <       0.00005108 Ry

     iteration # 10     ecut=    25.00 Ry     beta=0.30
     Davidson diagonalization with overlap
     ethr =  6.38E-07,  avg # of iterations =  1.0

     negative rho (up, down):  8.803E-03 0.000E+00

     total cpu time spent up to now is        4.2 secs

     total energy              =     -34.42881733 Ry
     Harris-Foulkes estimate   =     -34.42882406 Ry
     estimated scf accuracy    <       0.00003728 Ry

     iteration # 11     ecut=    25.00 Ry     beta=0.30
     Davidson diagonalization with overlap
     ethr =  4.66E-07,  avg # of iterations =  1.0

     negative rho (up, down):  8.851E-03 0.000E+00

     total cpu time spent up to now is        4.5 secs

     total energy              =     -34.42881769 Ry
     Harris-Foulkes estimate   =     -34.42881868 Ry
     estimated scf accuracy    <       0.00001503 Ry

     iteration # 12     ecut=    25.00 Ry     beta=0.30
     Davidson diagonalization with overlap
     ethr =  1.88E-07,  avg # of iterations =  1.0

     negative rho (up, down):  8.889E-03 0.000E+00

     total cpu time spent up to now is        4.9 secs

     total energy              =     -34.42881769 Ry
     Harris-Foulkes estimate   =     -34.42881782 Ry
     estimated scf accuracy    <       0.00001169 Ry

     iteration # 13     ecut=    25.00 Ry     beta=0.30
     Davidson diagonalization with overlap
     ethr =  1.46E-07,  avg # of iterations =  1.0

     negative rho (up, down):  8.920E-03 0.000E+00

     total cpu time spent up to now is        5.2 secs

     total energy              =     -34.42881496 Ry
     Harris-Foulkes estimate   =     -34.42881773 Ry
     estimated scf accuracy    <       0.00001076 Ry

     iteration # 14     ecut=    25.00 Ry     beta=0.30
     Davidson diagonalization with overlap
     ethr =  1.35E-07,  avg # of iterations =  1.0

     negative rho (up, down):  8.931E-03 0.000E+00

     total cpu time spent up to now is        5.6 secs

     total energy              =     -34.42881555 Ry
     Harris-Foulkes estimate   =     -34.42881583 Ry
     estimated scf accuracy    <       0.00000336 Ry

     iteration # 15     ecut=    25.00 Ry     beta=0.30
     Davidson diagonalization with overlap
     ethr =  4.20E-08,  avg # of iterations =  2.0

     negative rho (up, down):  8.945E-03 0.000E+00

     total cpu time spent up to now is        5.9 secs

     total energy              =     -34.42881615 Ry
     Harris-Foulkes estimate   =     -34.42881668 Ry
     estimated scf accuracy    <       0.00000189 Ry

     iteration # 16     ecut=    25.00 Ry     beta=0.30
     Davidson diagonalization with overlap
     ethr =  2.37E-08,  avg # of iterations =  1.0

     negative rho (up, down):  8.990E-03 0.000E+00

     total cpu time spent up to now is        6.2 secs

     End of self-consistent calculation

          k = 0.0000 0.0000 0.0000 ( 10152 PWs)   bands (ev):

   -25.3098 -13.0909  -9.2763  -7.2398  -1.1884  -0.1563   0.2661   0.3670

     the Fermi energy is    -6.8961 ev

!    total energy              =     -34.42881596 Ry
     Harris-Foulkes estimate   =     -34.42881627 Ry
     estimated scf accuracy    <       0.00000052 Ry

     The total energy is the sum of the following terms:

     one-electron contribution =     -57.39611139 Ry
     hartree contribution      =      30.11108578 Ry
     xc contribution           =      -8.40248244 Ry
     ewald contribution        =       1.25695273 Ry
     smearing contrib. (-TS)   =       0.00173937 Ry

     convergence has been achieved in  16 iterations

     Forces acting on atoms (cartesian axes, Ry/au):

     atom    1 type  2   force =    -0.00188114   -0.00031622   -0.00056266
     atom    2 type  1   force =     0.00093087   -0.00046228    0.00048475
     atom    3 type  1   force =     0.00095027    0.00077850    0.00050031

     Total force =     0.002651     Total SCF correction =     0.000490
     SCF correction compared to forces is large: reduce conv_thr to get better values

     Writing output data file H2O_bc1.save

     init_run     :      0.54s CPU      0.60s WALL (       1 calls)
     electrons    :      5.11s CPU      5.58s WALL (       1 calls)
     forces       :      0.21s CPU      0.22s WALL (       1 calls)

     Called by init_run:
     wfcinit      :      0.01s CPU      0.01s WALL (       1 calls)
     potinit      :      0.26s CPU      0.29s WALL (       1 calls)

     Called by electrons:
     c_bands      :      0.37s CPU      0.39s WALL (      16 calls)
     sum_band     :      1.29s CPU      1.39s WALL (      16 calls)
     v_of_rho     :      2.40s CPU      2.67s WALL (      17 calls)
     newd         :      0.63s CPU      0.70s WALL (      17 calls)
     mix_rho      :      0.34s CPU      0.38s WALL (      16 calls)

     Called by c_bands:
     init_us_2    :      0.01s CPU      0.01s WALL (      33 calls)
     regterg      :      0.36s CPU      0.37s WALL (      16 calls)

     Called by sum_band:
     sum_band:bec :      0.00s CPU      0.00s WALL (      16 calls)
     addusdens    :      0.76s CPU      0.81s WALL (      16 calls)

     Called by *egterg:
     h_psi        :      0.32s CPU      0.33s WALL (      64 calls)
     s_psi        :      0.00s CPU      0.00s WALL (      64 calls)
     g_psi        :      0.00s CPU      0.00s WALL (      47 calls)
     rdiaghg      :      0.01s CPU      0.01s WALL (      63 calls)

     Called by h_psi:
     h_psi:pot    :      0.32s CPU      0.33s WALL (      64 calls)
     h_psi:calbec :      0.01s CPU      0.01s WALL (      64 calls)
     vloc_psi     :      0.31s CPU      0.32s WALL (      64 calls)
     add_vuspsi   :      0.00s CPU      0.00s WALL (      64 calls)

     General routines
     calbec       :      0.01s CPU      0.01s WALL (      84 calls)
     fft          :      2.07s CPU      2.24s WALL (     270 calls)
     ffts         :      0.05s CPU      0.06s WALL (      33 calls)
     fftw         :      0.27s CPU      0.27s WALL (     434 calls)
     interpolate  :      0.34s CPU      0.39s WALL (      33 calls)
     davcio       :      0.00s CPU      0.00s WALL (       1 calls)

     Parallel routines
     fft_scatter  :      1.26s CPU      1.28s WALL (     737 calls)

     PWSCF        :     5.92s CPU         6.50s WALL


   This run was terminated on:  23: 8:23   4Feb2021            

=------------------------------------------------------------------------------=
   JOB DONE.
=------------------------------------------------------------------------------=
