
     Program PWSCF v.6.1 starts on 11Jan2021 at 17:27: 0 

     This program is part of the open-source Quantum ESPRESSO suite
     for quantum simulation of materials; please cite
         "P. Giannozzi et al., J. Phys.:Condens. Matter 21 395502 (2009);
          URL http://www.quantum-espresso.org", 
     in publications or presentations arising from this work. More details at
     http://www.quantum-espresso.org/quote

     Parallel version (MPI), running on     4 processors
     R & G space division:  proc/nbgrp/npool/nimage =       4
     Waiting for input...
     Reading input from standard input

     Current dimensions of program PWSCF are:
     Max number of different atomic species (ntypx) = 10
     Max number of k-points (npk) =  40000
     Max angular momentum in pseudopotentials (lmaxx) =  3

     gamma-point specific algorithms are used

     Subspace diagonalization in iterative solution of the eigenvalue problem:
     a serial algorithm will be used


     Parallelization info
     --------------------
     sticks:   dense  smooth     PW     G-vecs:    dense   smooth      PW
     Min        1591     794    198               114643    40525    5074
     Max        1594     797    199               114648    40530    5081
     Sum        6369    3181    793               458581   162113   20303



     bravais-lattice index     =            0
     lattice parameter (alat)  =      20.0000  a.u.
     unit-cell volume          =    9599.9886 (a.u.)^3
     number of atoms/cell      =            3
     number of atomic types    =            2
     number of electrons       =         8.00
     number of Kohn-Sham states=            8
     kinetic-energy cutoff     =      25.0000  Ry
     charge density cutoff     =     200.0000  Ry
     convergence threshold     =      1.0E-06
     mixing beta               =       0.1000
     number of iterations used =            8  plain     mixing
     Exchange-correlation      =  SLA  PW   PBE  PBE ( 1  4  3  4 0 0)

     Effective Screening Medium Method
     =================================
     Boundary Conditions: Vacuum-Slab-Vacuum
     total charge in unit cell        =   0.0000
     grid points for fit at edges     =        4 


     celldm(1)=  19.999992  celldm(2)=   0.000000  celldm(3)=   0.000000
     celldm(4)=   0.000000  celldm(5)=   0.000000  celldm(6)=   0.000000

     crystal axes: (cart. coord. in units of alat)
               a(1) = (   1.000000   0.000000   0.000000 )  
               a(2) = (   0.000000   1.000000   0.000000 )  
               a(3) = (   0.000000   0.000000   1.200000 )  

     reciprocal axes: (cart. coord. in units 2 pi/alat)
               b(1) = (  1.000000  0.000000  0.000000 )  
               b(2) = (  0.000000  1.000000  0.000000 )  
               b(3) = (  0.000000  0.000000  0.833333 )  


     PseudoPot. # 1 for H  read from file:
     /home1/gler/share/qe-6.1-rism/pseudo/H.pbe-van_ak.UPF
     MD5 check sum: 077eb6d537518a38cb46c6de387227b7
     Pseudo is Ultrasoft, Zval =  1.0
     Generated by new atomic code, or converted to UPF format
     Using radial grid of  615 points,  1 beta functions with: 
                l(1) =   0
     Q(r) pseudized with  8 coefficients,  rinner =    0.800

     PseudoPot. # 2 for O  read from file:
     /home1/gler/share/qe-6.1-rism/pseudo/O.pbe-van_ak.UPF
     MD5 check sum: 78c19812648e8988a0fe644b0f25305e
     Pseudo is Ultrasoft, Zval =  6.0
     Generated by new atomic code, or converted to UPF format
     Using radial grid of  737 points,  4 beta functions with: 
                l(1) =   0
                l(2) =   0
                l(3) =   1
                l(4) =   1
     Q(r) pseudized with  8 coefficients,  rinner =    0.800   0.800   0.800


     atomic species   valence    mass     pseudopotential
        H              1.00     1.00794     H ( 1.00)
        O              6.00    55.84700     O ( 1.00)

     No symmetry found



   Cartesian axes

     site n.     atom                  positions (alat units)
         1           O   tau(   1) = (   0.0000000   0.5000000   0.0000000  )
         2           H   tau(   2) = (   0.0431388   0.4310286   0.0430783  )
         3           H   tau(   3) = (   0.0366354   0.5764064   0.0359492  )

     number of k points=     1  Methfessel-Paxton smearing, width (Ry)=  0.0300
                       cart. coord. in units 2pi/alat
        k(    1) = (   0.0000000   0.0000000   0.0000000), wk =   2.0000000

     Dense  grid:   229291 G-vectors     FFT dimensions: (  96,  96, 120)

     Smooth grid:    81057 G-vectors     FFT dimensions: (  64,  64,  80)

     Estimated max dynamical RAM per process >      45.72MB

     Estimated total allocated dynamical RAM >     182.89MB

     Initial potential from superposition of free atoms
     Check: negative starting charge=   -0.002904

     starting charge    7.99998, renormalised to    8.00000

     negative rho (up, down):  2.904E-03 0.000E+00
     Starting wfc are    6 randomized atomic wfcs +    2 random wfc

     total cpu time spent up to now is        2.0 secs

     per-process dynamical memory:    43.0 Mb

     Self-consistent Calculation

     iteration #  1     ecut=    25.00 Ry     beta=0.10
     Davidson diagonalization with overlap
     ethr =  1.00E-02,  avg # of iterations =  6.0

     negative rho (up, down):  2.629E-03 0.000E+00

     total cpu time spent up to now is        2.7 secs

     total energy              =     -34.50360514 Ry
     Harris-Foulkes estimate   =     -34.57070669 Ry
     estimated scf accuracy    <       0.43874640 Ry

     iteration #  2     ecut=    25.00 Ry     beta=0.10
     Davidson diagonalization with overlap
     ethr =  5.48E-03,  avg # of iterations =  1.0

     negative rho (up, down):  1.020E-02 0.000E+00

     total cpu time spent up to now is        3.4 secs

     total energy              =     -34.37461311 Ry
     Harris-Foulkes estimate   =     -34.50909482 Ry
     estimated scf accuracy    <       0.26495458 Ry

     iteration #  3     ecut=    25.00 Ry     beta=0.10
     Davidson diagonalization with overlap
     ethr =  3.31E-03,  avg # of iterations =  2.0

     negative rho (up, down):  7.464E-03 0.000E+00

     total cpu time spent up to now is        4.0 secs

     total energy              =     -34.42769499 Ry
     Harris-Foulkes estimate   =     -34.43594741 Ry
     estimated scf accuracy    <       0.02973309 Ry

     iteration #  4     ecut=    25.00 Ry     beta=0.10
     Davidson diagonalization with overlap
     ethr =  3.72E-04,  avg # of iterations =  5.0

     negative rho (up, down):  2.671E-02 0.000E+00

     total cpu time spent up to now is        4.7 secs

     total energy              =     -34.42275488 Ry
     Harris-Foulkes estimate   =     -34.44535096 Ry
     estimated scf accuracy    <       0.04842717 Ry

     iteration #  5     ecut=    25.00 Ry     beta=0.10
     Davidson diagonalization with overlap
     ethr =  3.72E-04,  avg # of iterations =  3.0

     negative rho (up, down):  2.298E-02 0.000E+00

     total cpu time spent up to now is        5.3 secs

     total energy              =     -34.42880714 Ry
     Harris-Foulkes estimate   =     -34.42886480 Ry
     estimated scf accuracy    <       0.00038219 Ry

     iteration #  6     ecut=    25.00 Ry     beta=0.10
     Davidson diagonalization with overlap
     ethr =  4.78E-06,  avg # of iterations = 12.0

     negative rho (up, down):  2.057E-02 0.000E+00

     total cpu time spent up to now is        6.0 secs

     total energy              =     -34.42887311 Ry
     Harris-Foulkes estimate   =     -34.42891247 Ry
     estimated scf accuracy    <       0.00027642 Ry

     iteration #  7     ecut=    25.00 Ry     beta=0.10
     Davidson diagonalization with overlap
     ethr =  3.46E-06,  avg # of iterations =  1.0

     negative rho (up, down):  1.904E-02 0.000E+00

     total cpu time spent up to now is        6.6 secs

     total energy              =     -34.42883087 Ry
     Harris-Foulkes estimate   =     -34.42887911 Ry
     estimated scf accuracy    <       0.00012793 Ry

     iteration #  8     ecut=    25.00 Ry     beta=0.10
     Davidson diagonalization with overlap
     ethr =  1.60E-06,  avg # of iterations =  3.0

     negative rho (up, down):  1.738E-02 0.000E+00

     total cpu time spent up to now is        7.2 secs

     total energy              =     -34.42886993 Ry
     Harris-Foulkes estimate   =     -34.42887847 Ry
     estimated scf accuracy    <       0.00002712 Ry

     iteration #  9     ecut=    25.00 Ry     beta=0.10
     Davidson diagonalization with overlap
     ethr =  3.39E-07,  avg # of iterations =  2.0

     negative rho (up, down):  8.986E-03 0.000E+00

     total cpu time spent up to now is        7.8 secs

     End of self-consistent calculation

          k = 0.0000 0.0000 0.0000 ( 10152 PWs)   bands (ev):

   -25.3078 -13.0885  -9.2751  -7.2401  -1.2436  -0.2608   0.1487   0.2806

     the Fermi energy is    -6.8965 ev

!    total energy              =     -34.42881540 Ry
     Harris-Foulkes estimate   =     -34.42887479 Ry
     estimated scf accuracy    <       0.00000048 Ry

     The total energy is the sum of the following terms:

     one-electron contribution =     -57.40069270 Ry
     hartree contribution      =      30.11660145 Ry
     xc contribution           =      -8.40341625 Ry
     ewald contribution        =       1.25695273 Ry
     smearing contrib. (-TS)   =       0.00173937 Ry

     convergence has been achieved in   9 iterations

     Forces acting on atoms (cartesian axes, Ry/au):

     atom    1 type  2   force =    -0.00205654   -0.00031424   -0.00089886
     atom    2 type  1   force =     0.00100565   -0.00028269    0.00035601
     atom    3 type  1   force =     0.00105089    0.00059693    0.00038571

     Total force =     0.002822     Total SCF correction =     0.001894
     SCF correction compared to forces is large: reduce conv_thr to get better values

     Writing output data file H2O_bc1.save

     init_run     :      1.88s CPU      1.93s WALL (       1 calls)
     electrons    :      5.78s CPU      5.89s WALL (       1 calls)
     forces       :      0.67s CPU      0.67s WALL (       1 calls)

     Called by init_run:
     wfcinit      :      0.02s CPU      0.02s WALL (       1 calls)
     potinit      :      0.89s CPU      0.91s WALL (       1 calls)

     Called by electrons:
     c_bands      :      0.62s CPU      0.62s WALL (       9 calls)
     sum_band     :      1.16s CPU      1.18s WALL (       9 calls)
     v_of_rho     :      3.25s CPU      3.26s WALL (      10 calls)
     newd         :      0.64s CPU      0.65s WALL (      10 calls)
     mix_rho      :      0.27s CPU      0.27s WALL (       9 calls)

     Called by c_bands:
     init_us_2    :      0.02s CPU      0.02s WALL (      19 calls)
     regterg      :      0.60s CPU      0.60s WALL (       9 calls)

     Called by sum_band:
     sum_band:bec :      0.00s CPU      0.00s WALL (       9 calls)
     addusdens    :      0.69s CPU      0.71s WALL (       9 calls)

     Called by *egterg:
     h_psi        :      0.54s CPU      0.54s WALL (      45 calls)
     s_psi        :      0.00s CPU      0.00s WALL (      45 calls)
     g_psi        :      0.00s CPU      0.01s WALL (      35 calls)
     rdiaghg      :      0.01s CPU      0.01s WALL (      44 calls)

     Called by h_psi:
     h_psi:pot    :      0.54s CPU      0.54s WALL (      45 calls)
     h_psi:calbec :      0.01s CPU      0.01s WALL (      45 calls)
     vloc_psi     :      0.52s CPU      0.53s WALL (      45 calls)
     add_vuspsi   :      0.01s CPU      0.01s WALL (      45 calls)

     General routines
     calbec       :      0.02s CPU      0.01s WALL (      58 calls)
     fft          :      1.65s CPU      1.65s WALL (     158 calls)
     ffts         :      0.05s CPU      0.05s WALL (      19 calls)
     fftw         :      0.47s CPU      0.48s WALL (     288 calls)
     interpolate  :      0.29s CPU      0.29s WALL (      19 calls)
     davcio       :      0.00s CPU      0.00s WALL (       1 calls)

     Parallel routines
     fft_scatter  :      0.86s CPU      0.86s WALL (     465 calls)

     PWSCF        :     8.50s CPU         8.78s WALL


   This run was terminated on:  17:27: 8  11Jan2021            

=------------------------------------------------------------------------------=
   JOB DONE.
=------------------------------------------------------------------------------=
