
     Program PWSCF v.6.1 starts on 11Jan2021 at 17:26:50 

     This program is part of the open-source Quantum ESPRESSO suite
     for quantum simulation of materials; please cite
         "P. Giannozzi et al., J. Phys.:Condens. Matter 21 395502 (2009);
          URL http://www.quantum-espresso.org", 
     in publications or presentations arising from this work. More details at
     http://www.quantum-espresso.org/quote

     Parallel version (MPI), running on     4 processors
     R & G space division:  proc/nbgrp/npool/nimage =       4
     Waiting for input...
     Reading input from standard input

     Current dimensions of program PWSCF are:
     Max number of different atomic species (ntypx) = 10
     Max number of k-points (npk) =  40000
     Max angular momentum in pseudopotentials (lmaxx) =  3

     gamma-point specific algorithms are used

     Subspace diagonalization in iterative solution of the eigenvalue problem:
     a serial algorithm will be used


     Parallelization info
     --------------------
     sticks:   dense  smooth     PW     G-vecs:    dense   smooth      PW
     Min        1591     794    198               114643    40525    5074
     Max        1594     797    199               114648    40530    5081
     Sum        6369    3181    793               458581   162113   20303



     bravais-lattice index     =            0
     lattice parameter (alat)  =      20.0000  a.u.
     unit-cell volume          =    9599.9886 (a.u.)^3
     number of atoms/cell      =            3
     number of atomic types    =            2
     number of electrons       =         8.00
     number of Kohn-Sham states=            8
     kinetic-energy cutoff     =      25.0000  Ry
     charge density cutoff     =     200.0000  Ry
     convergence threshold     =      1.0E-06
     mixing beta               =       0.1000
     number of iterations used =            8  plain     mixing
     Exchange-correlation      =  SLA  PW   PBE  PBE ( 1  4  3  4 0 0)

     Effective Screening Medium Method
     =================================
     Ordinary Periodic Boundary Conditions
     total charge in unit cell        =   0.0000
     grid points for fit at edges     =        4 


     celldm(1)=  19.999992  celldm(2)=   0.000000  celldm(3)=   0.000000
     celldm(4)=   0.000000  celldm(5)=   0.000000  celldm(6)=   0.000000

     crystal axes: (cart. coord. in units of alat)
               a(1) = (   1.000000   0.000000   0.000000 )  
               a(2) = (   0.000000   1.000000   0.000000 )  
               a(3) = (   0.000000   0.000000   1.200000 )  

     reciprocal axes: (cart. coord. in units 2 pi/alat)
               b(1) = (  1.000000  0.000000  0.000000 )  
               b(2) = (  0.000000  1.000000  0.000000 )  
               b(3) = (  0.000000  0.000000  0.833333 )  


     PseudoPot. # 1 for H  read from file:
     /home1/gler/share/qe-6.1-rism/pseudo/H.pbe-van_ak.UPF
     MD5 check sum: 077eb6d537518a38cb46c6de387227b7
     Pseudo is Ultrasoft, Zval =  1.0
     Generated by new atomic code, or converted to UPF format
     Using radial grid of  615 points,  1 beta functions with: 
                l(1) =   0
     Q(r) pseudized with  8 coefficients,  rinner =    0.800

     PseudoPot. # 2 for O  read from file:
     /home1/gler/share/qe-6.1-rism/pseudo/O.pbe-van_ak.UPF
     MD5 check sum: 78c19812648e8988a0fe644b0f25305e
     Pseudo is Ultrasoft, Zval =  6.0
     Generated by new atomic code, or converted to UPF format
     Using radial grid of  737 points,  4 beta functions with: 
                l(1) =   0
                l(2) =   0
                l(3) =   1
                l(4) =   1
     Q(r) pseudized with  8 coefficients,  rinner =    0.800   0.800   0.800


     atomic species   valence    mass     pseudopotential
        H              1.00     1.00794     H ( 1.00)
        O              6.00    55.84700     O ( 1.00)

     No symmetry found



   Cartesian axes

     site n.     atom                  positions (alat units)
         1           O   tau(   1) = (   0.0000000   0.5000000   0.0000000  )
         2           H   tau(   2) = (   0.0431388   0.4310286   0.0430783  )
         3           H   tau(   3) = (   0.0366354   0.5764064   0.0359492  )

     number of k points=     1  Methfessel-Paxton smearing, width (Ry)=  0.0300
                       cart. coord. in units 2pi/alat
        k(    1) = (   0.0000000   0.0000000   0.0000000), wk =   2.0000000

     Dense  grid:   229291 G-vectors     FFT dimensions: (  96,  96, 120)

     Smooth grid:    81057 G-vectors     FFT dimensions: (  64,  64,  80)

     Estimated max dynamical RAM per process >      45.72MB

     Estimated total allocated dynamical RAM >     182.89MB

     Initial potential from superposition of free atoms
     Check: negative starting charge=   -0.002904

     starting charge    7.99998, renormalised to    8.00000

     negative rho (up, down):  2.904E-03 0.000E+00
     Starting wfc are    6 randomized atomic wfcs +    2 random wfc

     total cpu time spent up to now is        2.4 secs

     per-process dynamical memory:    43.1 Mb

     Self-consistent Calculation

     iteration #  1     ecut=    25.00 Ry     beta=0.10
     Davidson diagonalization with overlap
     ethr =  1.00E-02,  avg # of iterations =  7.0

     negative rho (up, down):  2.631E-03 0.000E+00

     total cpu time spent up to now is        3.0 secs

     total energy              =     -34.50345860 Ry
     Harris-Foulkes estimate   =     -34.57127197 Ry
     estimated scf accuracy    <       0.44378693 Ry

     iteration #  2     ecut=    25.00 Ry     beta=0.10
     Davidson diagonalization with overlap
     ethr =  5.55E-03,  avg # of iterations =  1.0

     negative rho (up, down):  9.254E-03 0.000E+00

     total cpu time spent up to now is        3.7 secs

     total energy              =     -34.38483601 Ry
     Harris-Foulkes estimate   =     -34.50916987 Ry
     estimated scf accuracy    <       0.25802299 Ry

     iteration #  3     ecut=    25.00 Ry     beta=0.10
     Davidson diagonalization with overlap
     ethr =  3.23E-03,  avg # of iterations =  2.0

     negative rho (up, down):  9.699E-03 0.000E+00

     total cpu time spent up to now is        4.4 secs

     total energy              =     -34.43077150 Ry
     Harris-Foulkes estimate   =     -34.43532049 Ry
     estimated scf accuracy    <       0.02374207 Ry

     iteration #  4     ecut=    25.00 Ry     beta=0.10
     Davidson diagonalization with overlap
     ethr =  2.97E-04,  avg # of iterations =  3.0

     negative rho (up, down):  2.823E-02 0.000E+00

     total cpu time spent up to now is        5.0 secs

     total energy              =     -34.42674973 Ry
     Harris-Foulkes estimate   =     -34.43896729 Ry
     estimated scf accuracy    <       0.02749825 Ry

     iteration #  5     ecut=    25.00 Ry     beta=0.10
     Davidson diagonalization with overlap
     ethr =  2.97E-04,  avg # of iterations =  3.0

     negative rho (up, down):  2.308E-02 0.000E+00

     total cpu time spent up to now is        5.6 secs

     total energy              =     -34.42913690 Ry
     Harris-Foulkes estimate   =     -34.42936019 Ry
     estimated scf accuracy    <       0.00065545 Ry

     iteration #  6     ecut=    25.00 Ry     beta=0.10
     Davidson diagonalization with overlap
     ethr =  8.19E-06,  avg # of iterations =  8.0

     negative rho (up, down):  2.087E-02 0.000E+00

     total cpu time spent up to now is        6.2 secs

     total energy              =     -34.42914383 Ry
     Harris-Foulkes estimate   =     -34.42918560 Ry
     estimated scf accuracy    <       0.00009829 Ry

     iteration #  7     ecut=    25.00 Ry     beta=0.10
     Davidson diagonalization with overlap
     ethr =  1.23E-06,  avg # of iterations =  3.0

     negative rho (up, down):  1.920E-02 0.000E+00

     total cpu time spent up to now is        6.8 secs

     total energy              =     -34.42915021 Ry
     Harris-Foulkes estimate   =     -34.42926263 Ry
     estimated scf accuracy    <       0.00028140 Ry

     iteration #  8     ecut=    25.00 Ry     beta=0.10
     Davidson diagonalization with overlap
     ethr =  1.23E-06,  avg # of iterations =  2.0

     negative rho (up, down):  1.740E-02 0.000E+00

     total cpu time spent up to now is        7.4 secs

     total energy              =     -34.42920280 Ry
     Harris-Foulkes estimate   =     -34.42919888 Ry
     estimated scf accuracy    <       0.00000165 Ry

     iteration #  9     ecut=    25.00 Ry     beta=0.10
     Davidson diagonalization with overlap
     ethr =  2.06E-08,  avg # of iterations =  2.0

     negative rho (up, down):  8.980E-03 0.000E+00

     total cpu time spent up to now is        7.9 secs

     End of self-consistent calculation

          k = 0.0000 0.0000 0.0000 ( 10152 PWs)   bands (ev):

   -25.2048 -12.9866  -9.1753  -7.1389  -1.1247  -0.1599   0.2499   0.4013

     the Fermi energy is    -6.7953 ev

!    total energy              =     -34.42914403 Ry
     Harris-Foulkes estimate   =     -34.42920319 Ry
     estimated scf accuracy    <       0.00000048 Ry

     The total energy is the sum of the following terms:

     one-electron contribution =     -65.54720796 Ry
     hartree contribution      =      34.21779373 Ry
     xc contribution           =      -8.40332645 Ry
     ewald contribution        =       5.30185727 Ry
     smearing contrib. (-TS)   =       0.00173937 Ry

     convergence has been achieved in   9 iterations

     Forces acting on atoms (cartesian axes, Ry/au):

     atom    1 type  2   force =    -0.00164454   -0.00029187   -0.00143332
     atom    2 type  1   force =     0.00079547   -0.00023835    0.00069529
     atom    3 type  1   force =     0.00084907    0.00053022    0.00073804

     Total force =     0.002750     Total SCF correction =     0.000812
     SCF correction compared to forces is large: reduce conv_thr to get better values

     Writing output data file H2O_pbc.save

     init_run     :      1.75s CPU      2.03s WALL (       1 calls)
     electrons    :      5.57s CPU      5.71s WALL (       1 calls)
     forces       :      0.57s CPU      0.57s WALL (       1 calls)

     Called by init_run:
     wfcinit      :      0.03s CPU      0.10s WALL (       1 calls)
     potinit      :      0.88s CPU      0.90s WALL (       1 calls)

     Called by electrons:
     c_bands      :      0.58s CPU      0.58s WALL (       9 calls)
     sum_band     :      1.17s CPU      1.18s WALL (       9 calls)
     v_of_rho     :      3.03s CPU      3.04s WALL (      10 calls)
     newd         :      0.65s CPU      0.68s WALL (      10 calls)
     mix_rho      :      0.27s CPU      0.27s WALL (       9 calls)

     Called by c_bands:
     init_us_2    :      0.02s CPU      0.02s WALL (      19 calls)
     regterg      :      0.56s CPU      0.57s WALL (       9 calls)

     Called by sum_band:
     sum_band:bec :      0.00s CPU      0.00s WALL (       9 calls)
     addusdens    :      0.69s CPU      0.71s WALL (       9 calls)

     Called by *egterg:
     h_psi        :      0.52s CPU      0.53s WALL (      41 calls)
     s_psi        :      0.00s CPU      0.00s WALL (      41 calls)
     g_psi        :      0.00s CPU      0.01s WALL (      31 calls)
     rdiaghg      :      0.01s CPU      0.07s WALL (      40 calls)

     Called by h_psi:
     h_psi:pot    :      0.51s CPU      0.52s WALL (      41 calls)
     h_psi:calbec :      0.01s CPU      0.02s WALL (      41 calls)
     vloc_psi     :      0.49s CPU      0.50s WALL (      41 calls)
     add_vuspsi   :      0.01s CPU      0.01s WALL (      41 calls)

     General routines
     calbec       :      0.01s CPU      0.02s WALL (      54 calls)
     fft          :      1.65s CPU      1.80s WALL (     158 calls)
     ffts         :      0.05s CPU      0.05s WALL (      19 calls)
     fftw         :      0.46s CPU      0.45s WALL (     270 calls)
     interpolate  :      0.29s CPU      0.29s WALL (      19 calls)
     davcio       :      0.00s CPU      0.00s WALL (       1 calls)

     Parallel routines
     fft_scatter  :      0.86s CPU      0.86s WALL (     447 calls)

     PWSCF        :     8.04s CPU         8.91s WALL


   This run was terminated on:  17:26:59  11Jan2021            

=------------------------------------------------------------------------------=
   JOB DONE.
=------------------------------------------------------------------------------=
