
     Program PWSCF v.6.0 starts on  9Feb2017 at 23:19:35 

     This program is part of the open-source Quantum ESPRESSO suite
     for quantum simulation of materials; please cite
         "P. Giannozzi et al., J. Phys.:Condens. Matter 21 395502 (2009);
          URL http://www.quantum-espresso.org", 
     in publications or presentations arising from this work. More details at
     http://www.quantum-espresso.org/quote

     Parallel version (MPI & OpenMP), running on       6 processor cores
     Number of MPI processes:                 6
     Threads/MPI process:                     1
     R & G space division:  proc/nbgrp/npool/nimage =       6
     Waiting for input...
     Reading input from standard input

     Current dimensions of program PWSCF are:
     Max number of different atomic species (ntypx) = 10
     Max number of k-points (npk) =  40000
     Max angular momentum in pseudopotentials (lmaxx) =  3
     Message from routine iosys_1drism:
     default density from MOL file(H2O.spc.MOL) is used

     Subspace diagonalization in iterative solution of the eigenvalue problem:
     a serial algorithm will be used

     Message from routine setup:
     no reason to have ecutrho>4*ecutwfc

     Molecule # 1 for H2O read from file:
     /home/nisihara/QE/espresso/pseudo/H2O.spc.MOL
     Density:
         0.56829228E+01 cell^-1
         0.49533750E-02 bohr^-3
         0.55506881E+02 mol/L
         0.99997200E+00 g/cm^3
     Number of atoms:   3
     Atoms: 
       #  atom      X (angs)      Y (angs)      Z (angs)      Q (e)         E (kcal/mol)  S (angs)
       1  O/h2o     0.00000000    0.00000000    0.00000000   -0.82000000    0.15540000    3.16600000
       2  H/h2o     0.81649000    0.57736000    0.00000000    0.41000000    0.04600000    1.00000000
       3  H/h2o    -0.81649000    0.57736000    0.00000000    0.41000000    0.04600000    1.00000000


     Molecule # 2 for Na+ read from file:
     /home/nisihara/QE/espresso/pseudo/Na+.aq.MOL
     Density:
         0.51191156E+00 cell^-1
         0.44619468E-03 bohr^-3
         0.50000000E+01 mol/L
         0.11494885E+00 g/cm^3
     Number of atoms:   1
     Atoms: 
       #  atom      X (angs)      Y (angs)      Z (angs)      Q (e)         E (kcal/mol)  S (angs)
       1  Na        0.00000000    0.00000000    0.00000000    1.00000000    0.13010000    2.35000000


     Molecule # 3 for Cl- read from file:
     /home/nisihara/QE/espresso/pseudo/Cl-.aq.MOL
     Density:
         0.51191156E+00 cell^-1
         0.44619468E-03 bohr^-3
         0.50000000E+01 mol/L
         0.17726350E+00 g/cm^3
     Number of atoms:   1
     Atoms: 
       #  atom      X (angs)      Y (angs)      Z (angs)      Q (e)         E (kcal/mol)  S (angs)
       1  Cl        0.00000000    0.00000000    0.00000000   -1.00000000    0.10010000    4.40000000


     1D-RISM info
     ------------
     closure equation        =           KH
     temperature             =     300.0000  kelvin
     coulomb smearing radius =       2.0000  bohr
     number of solvent sites =            5
     number of grids         =         1252
     maximum of R-space      =     249.8003  bohr
     maximum of G-space      =      15.7268  bohr^-1
     number of iterations    =        40000
     convergence threshold   =      1.0E-08
     Gaussian width of bonds =       0.4000  bohr
     size of MDIIS           =           20
     step of MDIIS           =       0.5000
     number of processes     =            6


     1D-RISM Calculation

     iter. #     1  RMS(g-h-1)= 1.374E-03  nbox=  0  T= 2400.00K
     iter. #   101  RMS(g-h-1)= 3.179E-04  nbox=  2  T= 1600.00K
     iter. #   201  RMS(g-h-1)= 1.229E-05  nbox= 10  T= 1066.67K
     iter. #   301  RMS(g-h-1)= 5.001E-06  nbox= 15  T=  711.11K
     iter. #   401  RMS(g-h-1)= 1.191E-06  nbox=  2  T=  711.11K
     iter. #   501  RMS(g-h-1)= 1.094E-06  nbox= 20  T=  474.07K
     iter. #   601  RMS(g-h-1)= 3.832E-06  nbox= 20  T=  316.05K
     iter. #   701  RMS(g-h-1)= 1.312E-05  nbox=  8  T=  300.00K
     iter. #   801  RMS(g-h-1)= 5.572E-07  nbox= 20  T=  300.00K
     iter. #   901  RMS(g-h-1)= 3.114E-07  nbox= 20  T=  300.00K
     iter. #  1001  RMS(g-h-1)= 2.341E-07  nbox= 20  T=  300.00K
     iter. #  1101  RMS(g-h-1)= 1.830E-07  nbox= 20  T=  300.00K
     iter. #  1201  RMS(g-h-1)= 1.538E-07  nbox= 20  T=  300.00K
     iter. #  1301  RMS(g-h-1)= 1.280E-07  nbox= 20  T=  300.00K
     iter. #  1401  RMS(g-h-1)= 1.131E-07  nbox= 20  T=  300.00K
     iter. #  1501  RMS(g-h-1)= 1.010E-07  nbox= 20  T=  300.00K
     iter. #  1601  RMS(g-h-1)= 8.331E-08  nbox= 20  T=  300.00K
     iter. #  1701  RMS(g-h-1)= 7.268E-08  nbox= 20  T=  300.00K
     iter. #  1801  RMS(g-h-1)= 7.002E-08  nbox= 20  T=  300.00K
     iter. #  1901  RMS(g-h-1)= 6.487E-08  nbox= 20  T=  300.00K
     iter. #  2001  RMS(g-h-1)= 5.934E-08  nbox= 20  T=  300.00K
     iter. #  2101  RMS(g-h-1)= 5.514E-08  nbox= 20  T=  300.00K
     iter. #  2201  RMS(g-h-1)= 4.988E-08  nbox= 20  T=  300.00K
     iter. #  2301  RMS(g-h-1)= 4.433E-08  nbox= 20  T=  300.00K
     iter. #  2401  RMS(g-h-1)= 4.223E-08  nbox= 20  T=  300.00K
     iter. #  2501  RMS(g-h-1)= 3.938E-08  nbox= 20  T=  300.00K
     iter. #  2601  RMS(g-h-1)= 3.721E-08  nbox= 20  T=  300.00K
     iter. #  2701  RMS(g-h-1)= 3.532E-08  nbox= 20  T=  300.00K
     iter. #  2801  RMS(g-h-1)= 3.446E-08  nbox= 20  T=  300.00K
     iter. #  2901  RMS(g-h-1)= 3.322E-08  nbox= 20  T=  300.00K
     iter. #  3001  RMS(g-h-1)= 3.192E-08  nbox= 20  T=  300.00K
     iter. #  3101  RMS(g-h-1)= 2.961E-08  nbox= 20  T=  300.00K
     iter. #  3201  RMS(g-h-1)= 2.685E-08  nbox= 20  T=  300.00K
     iter. #  3301  RMS(g-h-1)= 2.535E-08  nbox= 20  T=  300.00K
     iter. #  3401  RMS(g-h-1)= 2.438E-08  nbox= 20  T=  300.00K
     iter. #  3501  RMS(g-h-1)= 2.376E-08  nbox= 20  T=  300.00K
     iter. #  3601  RMS(g-h-1)= 2.331E-08  nbox= 20  T=  300.00K
     iter. #  3701  RMS(g-h-1)= 2.283E-08  nbox= 20  T=  300.00K
     iter. #  3801  RMS(g-h-1)= 2.254E-08  nbox= 20  T=  300.00K
     iter. #  3901  RMS(g-h-1)= 2.172E-08  nbox= 20  T=  300.00K
     iter. #  4001  RMS(g-h-1)= 2.086E-08  nbox= 20  T=  300.00K
     iter. #  4101  RMS(g-h-1)= 2.000E-08  nbox= 20  T=  300.00K
     iter. #  4201  RMS(g-h-1)= 1.938E-08  nbox= 20  T=  300.00K
     iter. #  4301  RMS(g-h-1)= 1.843E-08  nbox= 20  T=  300.00K
     iter. #  4401  RMS(g-h-1)= 1.727E-08  nbox= 20  T=  300.00K
     iter. #  4501  RMS(g-h-1)= 1.667E-08  nbox= 20  T=  300.00K
     iter. #  4601  RMS(g-h-1)= 1.642E-08  nbox= 20  T=  300.00K
     iter. #  4701  RMS(g-h-1)= 1.609E-08  nbox= 20  T=  300.00K
     iter. #  4801  RMS(g-h-1)= 1.594E-08  nbox= 20  T=  300.00K
     iter. #  4901  RMS(g-h-1)= 1.582E-08  nbox= 20  T=  300.00K
     iter. #  5001  RMS(g-h-1)= 1.566E-08  nbox= 20  T=  300.00K
     iter. #  5101  RMS(g-h-1)= 1.530E-08  nbox= 20  T=  300.00K
     iter. #  5201  RMS(g-h-1)= 1.463E-08  nbox= 20  T=  300.00K
     iter. #  5301  RMS(g-h-1)= 1.437E-08  nbox= 20  T=  300.00K
     iter. #  5401  RMS(g-h-1)= 1.398E-08  nbox= 20  T=  300.00K
     iter. #  5501  RMS(g-h-1)= 1.450E-08  nbox= 20  T=  300.00K
     iter. #  5601  RMS(g-h-1)= 1.337E-08  nbox= 20  T=  300.00K
     iter. #  5701  RMS(g-h-1)= 1.294E-08  nbox= 20  T=  300.00K
     iter. #  5801  RMS(g-h-1)= 1.275E-08  nbox= 20  T=  300.00K
     iter. #  5901  RMS(g-h-1)= 1.249E-08  nbox= 20  T=  300.00K
     iter. #  6001  RMS(g-h-1)= 1.241E-08  nbox= 20  T=  300.00K
     iter. #  6101  RMS(g-h-1)= 1.228E-08  nbox= 20  T=  300.00K
     iter. #  6201  RMS(g-h-1)= 1.191E-08  nbox= 20  T=  300.00K
     iter. #  6301  RMS(g-h-1)= 1.165E-08  nbox= 20  T=  300.00K
     iter. #  6401  RMS(g-h-1)= 1.148E-08  nbox= 20  T=  300.00K
     iter. #  6501  RMS(g-h-1)= 1.117E-08  nbox= 20  T=  300.00K
     iter. #  6601  RMS(g-h-1)= 1.093E-08  nbox= 20  T=  300.00K
     iter. #  6701  RMS(g-h-1)= 1.070E-08  nbox= 20  T=  300.00K
     iter. #  6801  RMS(g-h-1)= 1.047E-08  nbox= 20  T=  300.00K
     iter. #  6901  RMS(g-h-1)= 1.020E-08  nbox= 20  T=  300.00K
     iter. #  6998  RMS(g-h-1)= 9.998E-09  nbox= 20  T=  300.00K

     End of 1D-RISM calculation


     convergence has been achieved in  6998 iterations


     Chemical potential of solvation

     H2O        H2O        Closure      0.755730E+01 kcal/mol
                           GaussFluct   0.441148E+01 kcal/mol

                Na+        Closure     -0.140210E+01 kcal/mol
                           GaussFluct  -0.158540E+01 kcal/mol

                Cl-        Closure     -0.246830E+00 kcal/mol
                           GaussFluct  -0.472329E+00 kcal/mol

                Total      Closure      0.590837E+01 kcal/mol
                           GaussFluct   0.235375E+01 kcal/mol

     Na+        H2O        Closure     -0.155653E+02 kcal/mol
                           GaussFluct  -0.176001E+02 kcal/mol

                Na+        Closure      0.109759E+06 kcal/mol
                           GaussFluct   0.109759E+06 kcal/mol

                Cl-        Closure     -0.109823E+06 kcal/mol
                           GaussFluct  -0.109823E+06 kcal/mol

                Total      Closure     -0.795586E+02 kcal/mol
                           GaussFluct  -0.818130E+02 kcal/mol

     Cl-        H2O        Closure     -0.274015E+01 kcal/mol
                           GaussFluct  -0.524351E+01 kcal/mol

                Na+        Closure     -0.109823E+06 kcal/mol
                           GaussFluct  -0.109823E+06 kcal/mol

                Cl-        Closure      0.109762E+06 kcal/mol
                           GaussFluct   0.109762E+06 kcal/mol

                Total      Closure     -0.633132E+02 kcal/mol
                           GaussFluct  -0.660949E+02 kcal/mol


     Parallelization info
     --------------------
     sticks:   dense  smooth     PW     G-vecs:    dense   smooth      PW
     Min          74      33     10                10866     3225     576
     Max          76      34     11                10878     3260     601
     Sum         451     199     61                65239    19411    3501



     bravais-lattice index     =            4
     lattice parameter (alat)  =       5.4046  a.u.
     unit-cell volume          =    1147.2830 (a.u.)^3
     number of atoms/cell      =            3
     number of atomic types    =            1
     number of electrons       =         8.90
     number of Kohn-Sham states=            8
     kinetic-energy cutoff     =      25.0000  Ry
     charge density cutoff     =     225.0000  Ry
     convergence threshold     =      1.0E-06
     mixing beta               =       0.2000
     number of iterations used =            8  plain     mixing
     Exchange-correlation      =  SLA  PW   PBE  PBE ( 1  4  3  4 0 0)
     nstep                     =           50


     Effective Screening Medium Method
     =================================
     Boundary Conditions: Vacuum-Slab-Vacuum
     grid points for fit at edges     =        4 


     celldm(1)=   5.404617  celldm(2)=   0.000000  celldm(3)=   8.391608
     celldm(4)=   0.000000  celldm(5)=   0.000000  celldm(6)=   0.000000

     crystal axes: (cart. coord. in units of alat)
               a(1) = (   1.000000   0.000000   0.000000 )  
               a(2) = (  -0.500000   0.866025   0.000000 )  
               a(3) = (   0.000000   0.000000   8.391608 )  

     reciprocal axes: (cart. coord. in units 2 pi/alat)
               b(1) = (  1.000000  0.577350 -0.000000 )  
               b(2) = (  0.000000  1.154701  0.000000 )  
               b(3) = (  0.000000 -0.000000  0.119167 )  


     PseudoPot. # 1 for Al read from file:
     /home/nisihara/QE/espresso/pseudo/Al.pbe-rrkj.UPF
     MD5 check sum: b5320f8fdc07ab0d74f109f4aa58256b
     Pseudo is Norm-conserving, Zval =  3.0
     Generated by new atomic code, or converted to UPF format
     Using radial grid of  879 points,  4 beta functions with: 
                l(1) =   0
                l(2) =   0
                l(3) =   1
                l(4) =   1

     atomic species   valence    mass     pseudopotential
        Al             3.00    26.98154     Al( 1.00)

      2 Sym. Ops. (no inversion) found



   Cartesian axes

     site n.     atom                  positions (alat units)
         1           Al  tau(   1) = (   0.0000000   0.0000000  -0.6993007  )
         2           Al  tau(   2) = (  -0.0000000   0.5769231   0.0314685  )
         3           Al  tau(   3) = (   0.5000000   0.2902098   0.7587413  )

     number of k points=     3  gaussian smearing, width (Ry)=  0.0100
                       cart. coord. in units 2pi/alat
        k(    1) = (   0.0000000   0.0000000   0.0000000), wk =   0.5000000
        k(    2) = (   0.0000000  -0.5773503   0.0000000), wk =   0.5000000
        k(    3) = (   0.5000000  -0.2886751   0.0000000), wk =   1.0000000

     Dense  grid:    65239 G-vectors     FFT dimensions: (  25,  25, 225)

     Smooth grid:    19411 G-vectors     FFT dimensions: (  18,  18, 150)

     Estimated max dynamical RAM per process >       6.50Mb

     Estimated total allocated dynamical RAM >      39.03Mb

     Solute:
       # atom     E (kcal/mol)  S (angs)
       1  Al      0.50500000    4.00815333    UFF
       2  Al      0.50500000    4.00815333    UFF
       3  Al      0.50500000    4.00815333    UFF


     Laue-RISM info
     --------------
     closure equation        =           KH
     temperature             =     300.0000  kelvin
     coulomb smearing radius =       2.0000  bohr
     number of solvent sites =            4
     solvent sites           =    O/h2o   H/h2o      Na      Cl
     number of iterations    =         2000
     convergence threshold   =      1.0E-04
     size of MDIIS           =           10
     step of MDIIS           =       0.8000
     solvent cutoff          =     144.0000  Ry
     Custom grid:    33515 G-vectors     FFT dimensions: (  24,  24, 180)

     Boundary Conditions        : Vacuum-Slab-Solvent
     unit-cell (in bohr)        : [ -22.676714  22.676714]
     expand-cell (in bohr)      : [ -22.676714  74.077264]
     solvent of right (in bohr) : [   0.000000  74.077264]
     reference of potential     : right-hand side
     #grids to fit at edges of unit-cell =    4
     Laue grid:      295 Gxy-vectors     FFT dimensions: (  24,  24, 384)


     Initial potential from superposition of free atoms

     starting charge    8.99223, renormalised to    8.90000

     negative rho (up, down):  5.681E-06 0.000E+00

     Laue-RISM Calculation

     convergence threshold    = 1.000E-02
     iter. #     1  RMS(g-h-1)= 3.244E+01  nbox=  0
     iter. #    11  RMS(g-h-1)= 2.672E+00  nbox= 10
     iter. #    21  RMS(g-h-1)= 1.018E+00  nbox= 10
     iter. #    31  RMS(g-h-1)= 6.370E-01  nbox= 10
     iter. #    41  RMS(g-h-1)= 2.285E-01  nbox= 10
     iter. #    51  RMS(g-h-1)= 1.624E-01  nbox= 10
     iter. #    61  RMS(g-h-1)= 1.717E-01  nbox= 10
     iter. #    71  RMS(g-h-1)= 1.009E-01  nbox= 10
     iter. #    81  RMS(g-h-1)= 9.403E-02  nbox= 10
     iter. #    91  RMS(g-h-1)= 8.983E-02  nbox=  5
     iter. #   101  RMS(g-h-1)= 9.009E-02  nbox= 10
     iter. #   111  RMS(g-h-1)= 8.115E-02  nbox=  9
     iter. #   121  RMS(g-h-1)= 6.881E-02  nbox=  3
     iter. #   131  RMS(g-h-1)= 6.732E-02  nbox= 10
     iter. #   141  RMS(g-h-1)= 5.005E-02  nbox=  6
     iter. #   151  RMS(g-h-1)= 4.862E-02  nbox= 10
     iter. #   161  RMS(g-h-1)= 4.659E-02  nbox=  9
     iter. #   171  RMS(g-h-1)= 3.601E-02  nbox=  5
     iter. #   181  RMS(g-h-1)= 2.811E-02  nbox= 10
     iter. #   191  RMS(g-h-1)= 2.399E-02  nbox= 10
     iter. #   201  RMS(g-h-1)= 2.093E-02  nbox= 10
     iter. #   211  RMS(g-h-1)= 9.862E-03  nbox= 10

     End of Laue-RISM calculation


     convergence has been achieved in   211 iterations


     solvent charge   -0.07890, renormalised to   -0.10000

     Total charge of solvent (in expand-cell)
     H2O          0.028575 e
     Na+          0.095571 e
     Cl-         -0.203030 e
     Total       -0.078883 e

     Chemical potential of solvation (in expand-cell)
     H2O        GaussFluct   0.853014E+01 kcal/mol
     Na+        GaussFluct  -0.475202E+03 kcal/mol
     Cl-        GaussFluct   0.486801E+03 kcal/mol
     Total      GaussFluct   0.201295E+02 kcal/mol

     Starting wfc are   12 randomized atomic wfcs

     total cpu time spent up to now is       23.6 secs

     per-process dynamical memory:    23.6 Mb

     Self-consistent Calculation

     iteration #  1     ecut=    25.00 Ry     beta=0.20
     Davidson diagonalization with overlap
     ethr =  1.00E-02,  avg # of iterations =  9.0

     negative rho (up, down):  1.053E-08 0.000E+00

     Laue-RISM Calculation

     convergence threshold    = 1.000E-02
     iter. #     1  RMS(g-h-1)= 1.227E+01  nbox=  0
     iter. #    11  RMS(g-h-1)= 7.730E-01  nbox= 10
     iter. #    21  RMS(g-h-1)= 2.901E-01  nbox= 10
     iter. #    31  RMS(g-h-1)= 1.854E-01  nbox= 10
     iter. #    41  RMS(g-h-1)= 8.239E-02  nbox= 10
     iter. #    51  RMS(g-h-1)= 5.826E-02  nbox= 10
     iter. #    61  RMS(g-h-1)= 5.501E-02  nbox=  4
     iter. #    71  RMS(g-h-1)= 5.414E-02  nbox= 10
     iter. #    81  RMS(g-h-1)= 5.381E-02  nbox=  8
     iter. #    91  RMS(g-h-1)= 5.206E-02  nbox=  2
     iter. #   101  RMS(g-h-1)= 5.175E-02  nbox= 10
     iter. #   111  RMS(g-h-1)= 5.143E-02  nbox=  6
     iter. #   121  RMS(g-h-1)= 5.164E-02  nbox= 10
     iter. #   131  RMS(g-h-1)= 5.022E-02  nbox= 10
     iter. #   141  RMS(g-h-1)= 4.798E-02  nbox=  4
     iter. #   151  RMS(g-h-1)= 6.148E-02  nbox= 10
     iter. #   161  RMS(g-h-1)= 4.509E-02  nbox=  8
     iter. #   171  RMS(g-h-1)= 4.405E-02  nbox= 10
     iter. #   181  RMS(g-h-1)= 4.372E-02  nbox= 10
     iter. #   191  RMS(g-h-1)= 4.816E-02  nbox=  5
     iter. #   201  RMS(g-h-1)= 3.897E-02  nbox=  3
     iter. #   211  RMS(g-h-1)= 3.723E-02  nbox= 10
     iter. #   221  RMS(g-h-1)= 3.316E-02  nbox=  5
     iter. #   231  RMS(g-h-1)= 3.211E-02  nbox= 10
     iter. #   241  RMS(g-h-1)= 3.037E-02  nbox=  9
     iter. #   251  RMS(g-h-1)= 2.692E-02  nbox=  3
     iter. #   261  RMS(g-h-1)= 1.509E-02  nbox= 10
     iter. #   268  RMS(g-h-1)= 9.576E-03  nbox= 10

     End of Laue-RISM calculation


     convergence has been achieved in   268 iterations


     solvent charge   -0.10198, renormalised to   -0.10000

     Total charge of solvent (in expand-cell)
     H2O         -0.013078 e
     Na+          0.100521 e
     Cl-         -0.189394 e
     Total       -0.101952 e

     Chemical potential of solvation (in expand-cell)
     H2O        GaussFluct   0.768026E+01 kcal/mol
     Na+        GaussFluct  -0.239088E+03 kcal/mol
     Cl-        GaussFluct   0.234655E+03 kcal/mol
     Total      GaussFluct   0.324734E+01 kcal/mol


     total cpu time spent up to now is       31.1 secs

     total energy              =     -11.09710805 Ry
     Harris-Foulkes estimate   =     -12.81112053 Ry
     estimated scf accuracy    <       3.49175813 Ry

     iteration #  2     ecut=    25.00 Ry     beta=0.20
     Davidson diagonalization with overlap
     ethr =  1.00E-02,  avg # of iterations =  7.7

     Laue-RISM Calculation

     convergence threshold    = 1.000E-02
     iter. #     1  RMS(g-h-1)= 8.590E+00  nbox=  0
     iter. #    11  RMS(g-h-1)= 3.463E-01  nbox= 10
     iter. #    21  RMS(g-h-1)= 1.714E-01  nbox= 10
     iter. #    31  RMS(g-h-1)= 7.580E-02  nbox= 10
     iter. #    41  RMS(g-h-1)= 3.671E-02  nbox= 10
     iter. #    51  RMS(g-h-1)= 2.511E-02  nbox= 10
     iter. #    61  RMS(g-h-1)= 2.460E-02  nbox=  2
     iter. #    71  RMS(g-h-1)= 2.477E-02  nbox= 10
     iter. #    81  RMS(g-h-1)= 2.456E-02  nbox=  6
     iter. #    91  RMS(g-h-1)= 2.439E-02  nbox= 10
     iter. #   101  RMS(g-h-1)= 2.430E-02  nbox= 10
     iter. #   111  RMS(g-h-1)= 2.405E-02  nbox=  4
     iter. #   121  RMS(g-h-1)= 2.112E-02  nbox= 10
     iter. #   131  RMS(g-h-1)= 1.655E-02  nbox=  8
     iter. #   141  RMS(g-h-1)= 1.991E-02  nbox= 10
     iter. #   151  RMS(g-h-1)= 1.088E-02  nbox= 10
     iter. #   152  RMS(g-h-1)= 9.697E-03  nbox= 10

     End of Laue-RISM calculation


     convergence has been achieved in   152 iterations


     solvent charge   -0.08598, renormalised to   -0.10000

     Total charge of solvent (in expand-cell)
     H2O          0.014854 e
     Na+          0.096676 e
     Cl-         -0.197534 e
     Total       -0.086004 e

     Chemical potential of solvation (in expand-cell)
     H2O        GaussFluct   0.863752E+01 kcal/mol
     Na+        GaussFluct  -0.408022E+03 kcal/mol
     Cl-        GaussFluct   0.414491E+03 kcal/mol
     Total      GaussFluct   0.151066E+02 kcal/mol


     total cpu time spent up to now is       35.1 secs

     total energy              =     -11.03254255 Ry
     Harris-Foulkes estimate   =     -14.07466439 Ry
     estimated scf accuracy    <      21.76144179 Ry

     iteration #  3     ecut=    25.00 Ry     beta=0.20
     Davidson diagonalization with overlap
     ethr =  1.00E-02,  avg # of iterations =  4.0

     Laue-RISM Calculation

     convergence threshold    = 1.000E-02
     iter. #     1  RMS(g-h-1)= 4.694E-01  nbox=  0
     iter. #    11  RMS(g-h-1)= 2.440E-02  nbox=  9
     iter. #    16  RMS(g-h-1)= 9.288E-03  nbox= 10

     End of Laue-RISM calculation


     convergence has been achieved in    16 iterations


     solvent charge   -0.07916, renormalised to   -0.10000

     Total charge of solvent (in expand-cell)
     H2O          0.032252 e
     Na+          0.095847 e
     Cl-         -0.207280 e
     Total       -0.079182 e

     Chemical potential of solvation (in expand-cell)
     H2O        GaussFluct   0.881051E+01 kcal/mol
     Na+        GaussFluct  -0.406002E+03 kcal/mol
     Cl-        GaussFluct   0.412656E+03 kcal/mol
     Total      GaussFluct   0.154647E+02 kcal/mol


     total cpu time spent up to now is       35.6 secs

     total energy              =     -12.42853937 Ry
     Harris-Foulkes estimate   =     -12.40719782 Ry
     estimated scf accuracy    <       0.35340151 Ry

     iteration #  4     ecut=    25.00 Ry     beta=0.20
     Davidson diagonalization with overlap
     ethr =  3.97E-03,  avg # of iterations =  1.0

     negative rho (up, down):  5.051E-07 0.000E+00

     Laue-RISM Calculation

     convergence threshold    = 1.000E-02
     iter. #     1  RMS(g-h-1)= 3.312E+00  nbox=  0
     iter. #    11  RMS(g-h-1)= 8.130E-02  nbox=  9
     iter. #    21  RMS(g-h-1)= 1.490E-02  nbox= 10
     iter. #    31  RMS(g-h-1)= 1.105E-02  nbox= 10
     iter. #    41  RMS(g-h-1)= 9.834E-03  nbox=  4

     End of Laue-RISM calculation


     convergence has been achieved in    41 iterations


     solvent charge   -0.12319, renormalised to   -0.10000

     Total charge of solvent (in expand-cell)
     H2O         -0.036729 e
     Na+          0.104962 e
     Cl-         -0.191276 e
     Total       -0.123043 e

     Chemical potential of solvation (in expand-cell)
     H2O        GaussFluct   0.724849E+01 kcal/mol
     Na+        GaussFluct  -0.425079E+03 kcal/mol
     Cl-        GaussFluct   0.431356E+03 kcal/mol
     Total      GaussFluct   0.135248E+02 kcal/mol


     total cpu time spent up to now is       36.9 secs

     total energy              =     -12.31168505 Ry
     Harris-Foulkes estimate   =     -12.44294667 Ry
     estimated scf accuracy    <       0.41168803 Ry

     iteration #  5     ecut=    25.00 Ry     beta=0.20
     Davidson diagonalization with overlap
     ethr =  3.97E-03,  avg # of iterations =  3.7

     negative rho (up, down):  5.603E-07 0.000E+00

     Laue-RISM Calculation

     convergence threshold    = 1.000E-02
     iter. #     1  RMS(g-h-1)= 1.837E-02  nbox=  0
     iter. #     4  RMS(g-h-1)= 9.880E-03  nbox=  3

     End of Laue-RISM calculation


     convergence has been achieved in     4 iterations


     solvent charge   -0.12363, renormalised to   -0.10000

     Total charge of solvent (in expand-cell)
     H2O         -0.036609 e
     Na+          0.104796 e
     Cl-         -0.191666 e
     Total       -0.123480 e

     Chemical potential of solvation (in expand-cell)
     H2O        GaussFluct   0.724225E+01 kcal/mol
     Na+        GaussFluct  -0.426383E+03 kcal/mol
     Cl-        GaussFluct   0.432891E+03 kcal/mol
     Total      GaussFluct   0.137509E+02 kcal/mol


     total cpu time spent up to now is       37.3 secs

     total energy              =     -12.43291846 Ry
     Harris-Foulkes estimate   =     -12.42835230 Ry
     estimated scf accuracy    <       0.47539324 Ry

     iteration #  6     ecut=    25.00 Ry     beta=0.20
     Davidson diagonalization with overlap
     ethr =  3.97E-03,  avg # of iterations =  1.0

     negative rho (up, down):  8.854E-07 0.000E+00

     Laue-RISM Calculation

     convergence threshold    = 1.000E-02
     iter. #     1  RMS(g-h-1)= 6.801E-01  nbox=  0
     iter. #    11  RMS(g-h-1)= 1.287E-02  nbox= 10
     iter. #    18  RMS(g-h-1)= 9.895E-03  nbox= 10

     End of Laue-RISM calculation


     convergence has been achieved in    18 iterations


     solvent charge   -0.12670, renormalised to   -0.10000

     Total charge of solvent (in expand-cell)
     H2O         -0.025849 e
     Na+          0.102971 e
     Cl-         -0.203668 e
     Total       -0.126546 e

     Chemical potential of solvation (in expand-cell)
     H2O        GaussFluct   0.788691E+01 kcal/mol
     Na+        GaussFluct  -0.433742E+03 kcal/mol
     Cl-        GaussFluct   0.441278E+03 kcal/mol
     Total      GaussFluct   0.154226E+02 kcal/mol


     total cpu time spent up to now is       38.2 secs

     total energy              =     -12.44417107 Ry
     Harris-Foulkes estimate   =     -12.43152301 Ry
     estimated scf accuracy    <       0.56309095 Ry

     iteration #  7     ecut=    25.00 Ry     beta=0.20
     Davidson diagonalization with overlap
     ethr =  3.97E-03,  avg # of iterations =  1.0

     negative rho (up, down):  1.590E-04 0.000E+00

     Laue-RISM Calculation

     convergence threshold    = 1.000E-02
     iter. #     1  RMS(g-h-1)= 4.505E+00  nbox=  0
     iter. #    11  RMS(g-h-1)= 1.138E-01  nbox=  9
     iter. #    21  RMS(g-h-1)= 3.604E-02  nbox= 10
     iter. #    31  RMS(g-h-1)= 2.999E-02  nbox= 10
     iter. #    41  RMS(g-h-1)= 2.708E-02  nbox=  4
     iter. #    51  RMS(g-h-1)= 2.631E-02  nbox= 10
     iter. #    61  RMS(g-h-1)= 2.529E-02  nbox=  8
     iter. #    71  RMS(g-h-1)= 1.156E-02  nbox= 10
     iter. #    73  RMS(g-h-1)= 9.625E-03  nbox= 10

     End of Laue-RISM calculation


     convergence has been achieved in    73 iterations


     solvent charge   -0.10960, renormalised to   -0.10000

     Total charge of solvent (in expand-cell)
     H2O         -0.017183 e
     Na+          0.104041 e
     Cl-         -0.196429 e
     Total       -0.109571 e

     Chemical potential of solvation (in expand-cell)
     H2O        GaussFluct   0.835462E+01 kcal/mol
     Na+        GaussFluct  -0.440250E+03 kcal/mol
     Cl-        GaussFluct   0.447740E+03 kcal/mol
     Total      GaussFluct   0.158442E+02 kcal/mol


     total cpu time spent up to now is       40.7 secs

     total energy              =     -12.45681769 Ry
     Harris-Foulkes estimate   =     -12.44745034 Ry
     estimated scf accuracy    <       0.83032121 Ry

     iteration #  8     ecut=    25.00 Ry     beta=0.20
     Davidson diagonalization with overlap
     ethr =  3.97E-03,  avg # of iterations =  8.0

     negative rho (up, down):  2.955E-05 0.000E+00

     Laue-RISM Calculation

     convergence threshold    = 1.000E-02
     iter. #     1  RMS(g-h-1)= 8.588E-02  nbox=  0
     iter. #     6  RMS(g-h-1)= 9.433E-03  nbox=  4

     End of Laue-RISM calculation


     convergence has been achieved in     6 iterations


     solvent charge   -0.10879, renormalised to   -0.10000

     Total charge of solvent (in expand-cell)
     H2O         -0.015762 e
     Na+          0.104149 e
     Cl-         -0.197150 e
     Total       -0.108763 e

     Chemical potential of solvation (in expand-cell)
     H2O        GaussFluct   0.837679E+01 kcal/mol
     Na+        GaussFluct  -0.437398E+03 kcal/mol
     Cl-        GaussFluct   0.444681E+03 kcal/mol
     Total      GaussFluct   0.156599E+02 kcal/mol


     total cpu time spent up to now is       41.0 secs

     total energy              =     -12.56478765 Ry
     Harris-Foulkes estimate   =     -12.57526367 Ry
     estimated scf accuracy    <       3.23225909 Ry

     iteration #  9     ecut=    25.00 Ry     beta=0.20
     Davidson diagonalization with overlap
     ethr =  3.97E-03,  avg # of iterations =  1.0

     negative rho (up, down):  3.745E-05 0.000E+00

     Laue-RISM Calculation

     convergence threshold    = 1.000E-02
     iter. #     1  RMS(g-h-1)= 1.432E-02  nbox=  0
     iter. #     2  RMS(g-h-1)= 9.241E-03  nbox=  1

     End of Laue-RISM calculation


     convergence has been achieved in     2 iterations


     solvent charge   -0.10861, renormalised to   -0.10000

     Total charge of solvent (in expand-cell)
     H2O         -0.015372 e
     Na+          0.104073 e
     Cl-         -0.197278 e
     Total       -0.108577 e

     Chemical potential of solvation (in expand-cell)
     H2O        GaussFluct   0.835451E+01 kcal/mol
     Na+        GaussFluct  -0.436698E+03 kcal/mol
     Cl-        GaussFluct   0.443932E+03 kcal/mol
     Total      GaussFluct   0.155883E+02 kcal/mol


     total cpu time spent up to now is       41.3 secs

     total energy              =     -12.56765004 Ry
     Harris-Foulkes estimate   =     -12.56956363 Ry
     estimated scf accuracy    <       3.12063415 Ry

     iteration # 10     ecut=    25.00 Ry     beta=0.20
     Davidson diagonalization with overlap
     ethr =  3.97E-03,  avg # of iterations =  1.0

     negative rho (up, down):  2.506E-03 0.000E+00

     Laue-RISM Calculation

     convergence threshold    = 1.000E-02
     iter. #     1  RMS(g-h-1)= 6.222E-01  nbox=  0
     iter. #    11  RMS(g-h-1)= 1.354E-02  nbox= 10
     iter. #    14  RMS(g-h-1)= 9.501E-03  nbox= 10

     End of Laue-RISM calculation


     convergence has been achieved in    14 iterations


     solvent charge   -0.10898, renormalised to   -0.10000

     Total charge of solvent (in expand-cell)
     H2O         -0.001851 e
     Na+          0.102041 e
     Cl-         -0.209202 e
     Total       -0.109013 e

     Chemical potential of solvation (in expand-cell)
     H2O        GaussFluct   0.886069E+01 kcal/mol
     Na+        GaussFluct  -0.428587E+03 kcal/mol
     Cl-        GaussFluct   0.436230E+03 kcal/mol
     Total      GaussFluct   0.165038E+02 kcal/mol


     total cpu time spent up to now is       41.9 secs

     total energy              =     -12.47571804 Ry
     Harris-Foulkes estimate   =     -12.56734097 Ry
     estimated scf accuracy    <       3.15328121 Ry

     iteration # 11     ecut=    25.00 Ry     beta=0.20
     Davidson diagonalization with overlap
     ethr =  3.97E-03,  avg # of iterations =  1.0

     negative rho (up, down):  2.742E-03 0.000E+00

     Laue-RISM Calculation

     convergence threshold    = 1.000E-02
     iter. #     1  RMS(g-h-1)= 1.733E+00  nbox=  0
     iter. #    11  RMS(g-h-1)= 2.484E-02  nbox=  9
     iter. #    21  RMS(g-h-1)= 1.128E-02  nbox= 10
     iter. #    22  RMS(g-h-1)= 9.569E-03  nbox= 10

     End of Laue-RISM calculation


     convergence has been achieved in    22 iterations


     solvent charge   -0.11706, renormalised to   -0.10000

     Total charge of solvent (in expand-cell)
     H2O         -0.015341 e
     Na+          0.104532 e
     Cl-         -0.206230 e
     Total       -0.117039 e

     Chemical potential of solvation (in expand-cell)
     H2O        GaussFluct   0.852797E+01 kcal/mol
     Na+        GaussFluct  -0.432319E+03 kcal/mol
     Cl-        GaussFluct   0.439786E+03 kcal/mol
     Total      GaussFluct   0.159949E+02 kcal/mol


     total cpu time spent up to now is       42.7 secs

     total energy              =     -12.55251236 Ry
     Harris-Foulkes estimate   =     -12.48812344 Ry
     estimated scf accuracy    <       2.17753395 Ry

     iteration # 12     ecut=    25.00 Ry     beta=0.20
     Davidson diagonalization with overlap
     ethr =  3.97E-03,  avg # of iterations =  1.0

     negative rho (up, down):  5.930E-03 0.000E+00

     Laue-RISM Calculation

     convergence threshold    = 1.000E-02
     iter. #     1  RMS(g-h-1)= 1.045E+00  nbox=  0
     iter. #    11  RMS(g-h-1)= 2.102E-02  nbox=  9
     iter. #    21  RMS(g-h-1)= 1.200E-02  nbox= 10
     iter. #    23  RMS(g-h-1)= 8.368E-03  nbox= 10

     End of Laue-RISM calculation


     convergence has been achieved in    23 iterations


     solvent charge   -0.10951, renormalised to   -0.10000

     Total charge of solvent (in expand-cell)
     H2O         -0.004164 e
     Na+          0.103190 e
     Cl-         -0.208524 e
     Total       -0.109498 e

     Chemical potential of solvation (in expand-cell)
     H2O        GaussFluct   0.884460E+01 kcal/mol
     Na+        GaussFluct  -0.418602E+03 kcal/mol
     Cl-        GaussFluct   0.425327E+03 kcal/mol
     Total      GaussFluct   0.155690E+02 kcal/mol


     total cpu time spent up to now is       43.7 secs

     total energy              =     -12.43401940 Ry
     Harris-Foulkes estimate   =     -12.56288626 Ry
     estimated scf accuracy    <       3.43324969 Ry

     iteration # 13     ecut=    25.00 Ry     beta=0.20
     Davidson diagonalization with overlap
     ethr =  3.97E-03,  avg # of iterations =  1.0

     negative rho (up, down):  4.208E-02 0.000E+00

     Laue-RISM Calculation

     convergence threshold    = 1.000E-02
     iter. #     1  RMS(g-h-1)= 2.744E+00  nbox=  0
     iter. #    11  RMS(g-h-1)= 2.742E-02  nbox=  9
     iter. #    21  RMS(g-h-1)= 1.109E-02  nbox= 10
     iter. #    22  RMS(g-h-1)= 9.860E-03  nbox= 10

     End of Laue-RISM calculation


     convergence has been achieved in    22 iterations


     solvent charge   -0.08293, renormalised to   -0.10000

     Total charge of solvent (in expand-cell)
     H2O          0.014946 e
     Na+          0.099007 e
     Cl-         -0.196933 e
     Total       -0.082980 e

     Chemical potential of solvation (in expand-cell)
     H2O        GaussFluct   0.881934E+01 kcal/mol
     Na+        GaussFluct  -0.431766E+03 kcal/mol
     Cl-        GaussFluct   0.439157E+03 kcal/mol
     Total      GaussFluct   0.162106E+02 kcal/mol


     total cpu time spent up to now is       44.7 secs

     total energy              =     -12.50029226 Ry
     Harris-Foulkes estimate   =     -12.48348548 Ry
     estimated scf accuracy    <       0.98035884 Ry

     iteration # 14     ecut=    25.00 Ry     beta=0.20
     Davidson diagonalization with overlap
     ethr =  3.97E-03,  avg # of iterations =  1.0

     negative rho (up, down):  1.770E-02 0.000E+00

     Laue-RISM Calculation

     convergence threshold    = 1.000E-02
     iter. #     1  RMS(g-h-1)= 5.411E-01  nbox=  0
     iter. #    11  RMS(g-h-1)= 1.456E-02  nbox=  9
     iter. #    17  RMS(g-h-1)= 9.753E-03  nbox= 10

     End of Laue-RISM calculation


     convergence has been achieved in    17 iterations


     solvent charge   -0.08364, renormalised to   -0.10000

     Total charge of solvent (in expand-cell)
     H2O          0.007153 e
     Na+          0.100447 e
     Cl-         -0.191292 e
     Total       -0.083692 e

     Chemical potential of solvation (in expand-cell)
     H2O        GaussFluct   0.857802E+01 kcal/mol
     Na+        GaussFluct  -0.364841E+03 kcal/mol
     Cl-        GaussFluct   0.367919E+03 kcal/mol
     Total      GaussFluct   0.116565E+02 kcal/mol


     total cpu time spent up to now is       45.5 secs

     total energy              =     -12.03778707 Ry
     Harris-Foulkes estimate   =     -12.53136827 Ry
     estimated scf accuracy    <       2.36952235 Ry

     iteration # 15     ecut=    25.00 Ry     beta=0.20
     Davidson diagonalization with overlap
     ethr =  3.97E-03,  avg # of iterations =  1.0

     negative rho (up, down):  1.631E-02 0.000E+00

     Laue-RISM Calculation

     convergence threshold    = 1.000E-02
     iter. #     1  RMS(g-h-1)= 3.469E-01  nbox=  0
     iter. #    11  RMS(g-h-1)= 1.480E-02  nbox=  9
     iter. #    14  RMS(g-h-1)= 9.652E-03  nbox= 10

     End of Laue-RISM calculation


     convergence has been achieved in    14 iterations


     solvent charge   -0.08565, renormalised to   -0.10000

     Total charge of solvent (in expand-cell)
     H2O          0.015603 e
     Na+          0.099407 e
     Cl-         -0.200715 e
     Total       -0.085705 e

     Chemical potential of solvation (in expand-cell)
     H2O        GaussFluct   0.902259E+01 kcal/mol
     Na+        GaussFluct  -0.371657E+03 kcal/mol
     Cl-        GaussFluct   0.375372E+03 kcal/mol
     Total      GaussFluct   0.127371E+02 kcal/mol


     total cpu time spent up to now is       46.2 secs

     total energy              =     -12.38849432 Ry
     Harris-Foulkes estimate   =     -12.39893573 Ry
     estimated scf accuracy    <       0.39228958 Ry

     iteration # 16     ecut=    25.00 Ry     beta=0.20
     Davidson diagonalization with overlap
     ethr =  3.97E-03,  avg # of iterations =  1.0

     negative rho (up, down):  2.129E-02 0.000E+00

     Laue-RISM Calculation

     convergence threshold    = 1.000E-02
     iter. #     1  RMS(g-h-1)= 5.824E-01  nbox=  0
     iter. #     9  RMS(g-h-1)= 9.090E-03  nbox=  7

     End of Laue-RISM calculation


     convergence has been achieved in     9 iterations


     solvent charge   -0.08413, renormalised to   -0.10000

     Total charge of solvent (in expand-cell)
     H2O          0.012773 e
     Na+          0.099310 e
     Cl-         -0.196281 e
     Total       -0.084198 e

     Chemical potential of solvation (in expand-cell)
     H2O        GaussFluct   0.886219E+01 kcal/mol
     Na+        GaussFluct  -0.361012E+03 kcal/mol
     Cl-        GaussFluct   0.363885E+03 kcal/mol
     Total      GaussFluct   0.117346E+02 kcal/mol


     total cpu time spent up to now is       46.7 secs

     total energy              =     -12.39057510 Ry
     Harris-Foulkes estimate   =     -12.39409676 Ry
     estimated scf accuracy    <       0.18552315 Ry

     iteration # 17     ecut=    25.00 Ry     beta=0.20
     Davidson diagonalization with overlap
     ethr =  2.08E-03,  avg # of iterations =  1.0

     negative rho (up, down):  2.491E-02 0.000E+00

     Laue-RISM Calculation

     convergence threshold    = 1.000E-02
     iter. #     1  RMS(g-h-1)= 1.515E+00  nbox=  0
     iter. #    11  RMS(g-h-1)= 1.956E-02  nbox=  9
     iter. #    21  RMS(g-h-1)= 9.042E-03  nbox= 10

     End of Laue-RISM calculation


     convergence has been achieved in    21 iterations


     solvent charge   -0.07550, renormalised to   -0.10000

     Total charge of solvent (in expand-cell)
     H2O          0.026114 e
     Na+          0.098620 e
     Cl-         -0.200299 e
     Total       -0.075564 e

     Chemical potential of solvation (in expand-cell)
     H2O        GaussFluct   0.905954E+01 kcal/mol
     Na+        GaussFluct  -0.372882E+03 kcal/mol
     Cl-        GaussFluct   0.376643E+03 kcal/mol
     Total      GaussFluct   0.128197E+02 kcal/mol


     total cpu time spent up to now is       47.6 secs

     total energy              =     -12.36841426 Ry
     Harris-Foulkes estimate   =     -12.38904616 Ry
     estimated scf accuracy    <       0.26063647 Ry

     iteration # 18     ecut=    25.00 Ry     beta=0.20
     Davidson diagonalization with overlap
     ethr =  2.08E-03,  avg # of iterations =  1.0

     negative rho (up, down):  1.962E-02 0.000E+00

     Laue-RISM Calculation

     convergence threshold    = 6.066E-03
     iter. #     1  RMS(g-h-1)= 2.849E-01  nbox=  0
     iter. #    11  RMS(g-h-1)= 9.937E-03  nbox=  9
     iter. #    21  RMS(g-h-1)= 7.153E-03  nbox= 10
     iter. #    31  RMS(g-h-1)= 6.409E-03  nbox= 10
     iter. #    41  RMS(g-h-1)= 6.387E-03  nbox=  7
     iter. #    47  RMS(g-h-1)= 5.922E-03  nbox= 10

     End of Laue-RISM calculation


     convergence has been achieved in    47 iterations


     solvent charge   -0.09059, renormalised to   -0.10000

     Total charge of solvent (in expand-cell)
     H2O          0.017168 e
     Na+          0.099001 e
     Cl-         -0.206797 e
     Total       -0.090627 e

     Chemical potential of solvation (in expand-cell)
     H2O        GaussFluct   0.917293E+01 kcal/mol
     Na+        GaussFluct  -0.383753E+03 kcal/mol
     Cl-        GaussFluct   0.388455E+03 kcal/mol
     Total      GaussFluct   0.138749E+02 kcal/mol


     total cpu time spent up to now is       49.0 secs

     total energy              =     -12.37739049 Ry
     Harris-Foulkes estimate   =     -12.37650814 Ry
     estimated scf accuracy    <       0.02173614 Ry

     iteration # 19     ecut=    25.00 Ry     beta=0.20
     Davidson diagonalization with overlap
     ethr =  2.44E-04,  avg # of iterations =  5.7

     negative rho (up, down):  1.520E-02 0.000E+00

     Laue-RISM Calculation

     convergence threshold    = 3.456E-03
     iter. #     1  RMS(g-h-1)= 2.895E-01  nbox=  0
     iter. #    11  RMS(g-h-1)= 5.467E-03  nbox=  9
     iter. #    21  RMS(g-h-1)= 3.661E-03  nbox= 10
     iter. #    27  RMS(g-h-1)= 3.453E-03  nbox= 10

     End of Laue-RISM calculation


     convergence has been achieved in    27 iterations


     solvent charge   -0.09335, renormalised to   -0.10000

     Total charge of solvent (in expand-cell)
     H2O          0.012208 e
     Na+          0.099949 e
     Cl-         -0.205598 e
     Total       -0.093441 e

     Chemical potential of solvation (in expand-cell)
     H2O        GaussFluct   0.910802E+01 kcal/mol
     Na+        GaussFluct  -0.385316E+03 kcal/mol
     Cl-        GaussFluct   0.390100E+03 kcal/mol
     Total      GaussFluct   0.138928E+02 kcal/mol


     total cpu time spent up to now is       50.0 secs

     total energy              =     -12.37981217 Ry
     Harris-Foulkes estimate   =     -12.38149295 Ry
     estimated scf accuracy    <       0.01425274 Ry

     iteration # 20     ecut=    25.00 Ry     beta=0.20
     Davidson diagonalization with overlap
     ethr =  1.60E-04,  avg # of iterations =  1.0

     negative rho (up, down):  1.310E-02 0.000E+00

     Laue-RISM Calculation

     convergence threshold    = 1.850E-03
     iter. #     1  RMS(g-h-1)= 5.482E-01  nbox=  0
     iter. #    11  RMS(g-h-1)= 8.082E-03  nbox=  9
     iter. #    21  RMS(g-h-1)= 2.791E-03  nbox= 10
     iter. #    28  RMS(g-h-1)= 1.685E-03  nbox= 10

     End of Laue-RISM calculation


     convergence has been achieved in    28 iterations


     solvent charge   -0.09800, renormalised to   -0.10000

     Total charge of solvent (in expand-cell)
     H2O          0.003295 e
     Na+          0.101725 e
     Cl-         -0.203076 e
     Total       -0.098055 e

     Chemical potential of solvation (in expand-cell)
     H2O        GaussFluct   0.895722E+01 kcal/mol
     Na+        GaussFluct  -0.392194E+03 kcal/mol
     Cl-        GaussFluct   0.397433E+03 kcal/mol
     Total      GaussFluct   0.141966E+02 kcal/mol


     total cpu time spent up to now is       51.2 secs

     total energy              =     -12.38087907 Ry
     Harris-Foulkes estimate   =     -12.37943661 Ry
     estimated scf accuracy    <       0.00891921 Ry

     iteration # 21     ecut=    25.00 Ry     beta=0.20
     Davidson diagonalization with overlap
     ethr =  1.00E-04,  avg # of iterations =  3.0

     negative rho (up, down):  1.486E-02 0.000E+00

     Laue-RISM Calculation

     convergence threshold    = 2.371E-03
     iter. #     1  RMS(g-h-1)= 1.460E-01  nbox=  0
     iter. #    11  RMS(g-h-1)= 2.528E-03  nbox=  9
     iter. #    12  RMS(g-h-1)= 2.354E-03  nbox= 10

     End of Laue-RISM calculation


     convergence has been achieved in    12 iterations


     solvent charge   -0.10144, renormalised to   -0.10000

     Total charge of solvent (in expand-cell)
     H2O          0.001260 e
     Na+          0.102271 e
     Cl-         -0.205024 e
     Total       -0.101492 e

     Chemical potential of solvation (in expand-cell)
     H2O        GaussFluct   0.899118E+01 kcal/mol
     Na+        GaussFluct  -0.396186E+03 kcal/mol
     Cl-        GaussFluct   0.401752E+03 kcal/mol
     Total      GaussFluct   0.145573E+02 kcal/mol


     total cpu time spent up to now is       51.9 secs

     total energy              =     -12.38144023 Ry
     Harris-Foulkes estimate   =     -12.38009769 Ry
     estimated scf accuracy    <       0.01074599 Ry

     iteration # 22     ecut=    25.00 Ry     beta=0.20
     Davidson diagonalization with overlap
     ethr =  1.00E-04,  avg # of iterations =  1.0

     negative rho (up, down):  9.368E-03 0.000E+00

     Laue-RISM Calculation

     convergence threshold    = 8.775E-04
     iter. #     1  RMS(g-h-1)= 1.099E-01  nbox=  0
     iter. #    11  RMS(g-h-1)= 3.304E-03  nbox=  9
     iter. #    21  RMS(g-h-1)= 1.214E-03  nbox= 10
     iter. #    28  RMS(g-h-1)= 8.257E-04  nbox= 10

     End of Laue-RISM calculation


     convergence has been achieved in    28 iterations


     solvent charge   -0.09865, renormalised to   -0.10000

     Total charge of solvent (in expand-cell)
     H2O          0.002533 e
     Na+          0.101411 e
     Cl-         -0.202651 e
     Total       -0.098708 e

     Chemical potential of solvation (in expand-cell)
     H2O        GaussFluct   0.893956E+01 kcal/mol
     Na+        GaussFluct  -0.398424E+03 kcal/mol
     Cl-        GaussFluct   0.404033E+03 kcal/mol
     Total      GaussFluct   0.145487E+02 kcal/mol


     total cpu time spent up to now is       53.0 secs

     total energy              =     -12.38136460 Ry
     Harris-Foulkes estimate   =     -12.38162835 Ry
     estimated scf accuracy    <       0.00509826 Ry

     iteration # 23     ecut=    25.00 Ry     beta=0.20
     Davidson diagonalization with overlap
     ethr =  5.73E-05,  avg # of iterations =  5.0

     negative rho (up, down):  7.378E-03 0.000E+00

     Laue-RISM Calculation

     convergence threshold    = 1.000E-04
     iter. #     1  RMS(g-h-1)= 1.377E-01  nbox=  0
     iter. #    11  RMS(g-h-1)= 2.071E-03  nbox=  9
     iter. #    21  RMS(g-h-1)= 1.185E-03  nbox= 10
     iter. #    31  RMS(g-h-1)= 9.215E-04  nbox= 10
     iter. #    41  RMS(g-h-1)= 8.178E-04  nbox= 10
     iter. #    51  RMS(g-h-1)= 8.195E-04  nbox=  4
     iter. #    61  RMS(g-h-1)= 8.168E-04  nbox= 10
     iter. #    71  RMS(g-h-1)= 8.152E-04  nbox=  8
     iter. #    81  RMS(g-h-1)= 8.035E-04  nbox=  2
     iter. #    91  RMS(g-h-1)= 6.729E-04  nbox= 10
     iter. #   101  RMS(g-h-1)= 5.135E-04  nbox= 10
     iter. #   111  RMS(g-h-1)= 3.216E-04  nbox= 10
     iter. #   121  RMS(g-h-1)= 1.839E-04  nbox= 10
     iter. #   131  RMS(g-h-1)= 1.311E-04  nbox= 10
     iter. #   141  RMS(g-h-1)= 1.290E-04  nbox=  2
     iter. #   148  RMS(g-h-1)= 8.625E-05  nbox=  9

     End of Laue-RISM calculation


     convergence has been achieved in   148 iterations


     solvent charge   -0.10016, renormalised to   -0.10000

     Total charge of solvent (in expand-cell)
     H2O          0.000042 e
     Na+          0.101660 e
     Cl-         -0.201925 e
     Total       -0.100223 e

     Chemical potential of solvation (in expand-cell)
     H2O        GaussFluct   0.886788E+01 kcal/mol
     Na+        GaussFluct  -0.397188E+03 kcal/mol
     Cl-        GaussFluct   0.402621E+03 kcal/mol
     Total      GaussFluct   0.143007E+02 kcal/mol


     total cpu time spent up to now is       58.2 secs

     total energy              =     -12.38219203 Ry
     Harris-Foulkes estimate   =     -12.38273119 Ry
     estimated scf accuracy    <       0.00056181 Ry

     iteration # 24     ecut=    25.00 Ry     beta=0.20
     Davidson diagonalization with overlap
     ethr =  6.31E-06,  avg # of iterations =  5.7

     negative rho (up, down):  2.180E-03 0.000E+00

     Laue-RISM Calculation

     convergence threshold    = 1.000E-04
     iter. #     1  RMS(g-h-1)= 8.782E-02  nbox=  0
     iter. #    11  RMS(g-h-1)= 2.470E-03  nbox= 10
     iter. #    21  RMS(g-h-1)= 1.071E-03  nbox= 10
     iter. #    31  RMS(g-h-1)= 6.002E-04  nbox= 10
     iter. #    41  RMS(g-h-1)= 5.605E-04  nbox= 10
     iter. #    51  RMS(g-h-1)= 5.458E-04  nbox=  6
     iter. #    61  RMS(g-h-1)= 5.411E-04  nbox= 10
     iter. #    71  RMS(g-h-1)= 5.427E-04  nbox= 10
     iter. #    81  RMS(g-h-1)= 5.394E-04  nbox=  4
     iter. #    91  RMS(g-h-1)= 5.220E-04  nbox= 10
     iter. #   101  RMS(g-h-1)= 4.337E-04  nbox=  8
     iter. #   111  RMS(g-h-1)= 3.726E-04  nbox= 10
     iter. #   121  RMS(g-h-1)= 1.651E-04  nbox= 10
     iter. #   127  RMS(g-h-1)= 9.017E-05  nbox= 10

     End of Laue-RISM calculation


     convergence has been achieved in   127 iterations


     solvent charge   -0.10023, renormalised to   -0.10000

     Total charge of solvent (in expand-cell)
     H2O         -0.000033 e
     Na+          0.101601 e
     Cl-         -0.201832 e
     Total       -0.100263 e

     Chemical potential of solvation (in expand-cell)
     H2O        GaussFluct   0.884962E+01 kcal/mol
     Na+        GaussFluct  -0.396313E+03 kcal/mol
     Cl-        GaussFluct   0.401537E+03 kcal/mol
     Total      GaussFluct   0.140734E+02 kcal/mol


     total cpu time spent up to now is       62.3 secs

     total energy              =     -12.38258936 Ry
     Harris-Foulkes estimate   =     -12.38302200 Ry
     estimated scf accuracy    <       0.00049563 Ry

     iteration # 25     ecut=    25.00 Ry     beta=0.20
     Davidson diagonalization with overlap
     ethr =  5.57E-06,  avg # of iterations =  4.3

     negative rho (up, down):  5.441E-05 0.000E+00

     Laue-RISM Calculation

     convergence threshold    = 1.000E-04
     iter. #     1  RMS(g-h-1)= 1.770E-01  nbox=  0
     iter. #    11  RMS(g-h-1)= 2.411E-03  nbox=  9
     iter. #    21  RMS(g-h-1)= 6.211E-04  nbox= 10
     iter. #    31  RMS(g-h-1)= 4.730E-04  nbox= 10
     iter. #    41  RMS(g-h-1)= 4.768E-04  nbox=  3
     iter. #    51  RMS(g-h-1)= 4.724E-04  nbox= 10
     iter. #    61  RMS(g-h-1)= 4.678E-04  nbox=  7
     iter. #    71  RMS(g-h-1)= 2.419E-04  nbox= 10
     iter. #    81  RMS(g-h-1)= 1.530E-04  nbox= 10
     iter. #    85  RMS(g-h-1)= 9.511E-05  nbox= 10

     End of Laue-RISM calculation


     convergence has been achieved in    85 iterations


     solvent charge   -0.10027, renormalised to   -0.10000

     Total charge of solvent (in expand-cell)
     H2O         -0.000117 e
     Na+          0.101635 e
     Cl-         -0.201825 e
     Total       -0.100307 e

     Chemical potential of solvation (in expand-cell)
     H2O        GaussFluct   0.884318E+01 kcal/mol
     Na+        GaussFluct  -0.395424E+03 kcal/mol
     Cl-        GaussFluct   0.400534E+03 kcal/mol
     Total      GaussFluct   0.139533E+02 kcal/mol


     total cpu time spent up to now is       65.1 secs

     total energy              =     -12.38245651 Ry
     Harris-Foulkes estimate   =     -12.38308417 Ry
     estimated scf accuracy    <       0.00086327 Ry

     iteration # 26     ecut=    25.00 Ry     beta=0.20
     Davidson diagonalization with overlap
     ethr =  5.57E-06,  avg # of iterations =  3.3

     negative rho (up, down):  1.718E-06 0.000E+00

     Laue-RISM Calculation

     convergence threshold    = 1.000E-04
     iter. #     1  RMS(g-h-1)= 3.542E-02  nbox=  0
     iter. #    11  RMS(g-h-1)= 4.706E-04  nbox=  9
     iter. #    21  RMS(g-h-1)= 1.165E-04  nbox= 10
     iter. #    27  RMS(g-h-1)= 9.933E-05  nbox= 10

     End of Laue-RISM calculation


     convergence has been achieved in    27 iterations


     solvent charge   -0.10040, renormalised to   -0.10000

     Total charge of solvent (in expand-cell)
     H2O         -0.000376 e
     Na+          0.101669 e
     Cl-         -0.201732 e
     Total       -0.100439 e

     Chemical potential of solvation (in expand-cell)
     H2O        GaussFluct   0.883460E+01 kcal/mol
     Na+        GaussFluct  -0.395742E+03 kcal/mol
     Cl-        GaussFluct   0.400863E+03 kcal/mol
     Total      GaussFluct   0.139558E+02 kcal/mol


     total cpu time spent up to now is       66.2 secs

     total energy              =     -12.38261845 Ry
     Harris-Foulkes estimate   =     -12.38249390 Ry
     estimated scf accuracy    <       0.00002536 Ry

     iteration # 27     ecut=    25.00 Ry     beta=0.20
     Davidson diagonalization with overlap
     ethr =  2.85E-07,  avg # of iterations =  6.3

     negative rho (up, down):  2.681E-07 0.000E+00

     Laue-RISM Calculation

     convergence threshold    = 1.000E-04
     iter. #     1  RMS(g-h-1)= 2.357E-02  nbox=  0
     iter. #    11  RMS(g-h-1)= 3.569E-04  nbox=  9
     iter. #    21  RMS(g-h-1)= 9.432E-05  nbox= 10

     End of Laue-RISM calculation


     convergence has been achieved in    21 iterations


     solvent charge   -0.10015, renormalised to   -0.10000

     Total charge of solvent (in expand-cell)
     H2O         -0.000038 e
     Na+          0.101625 e
     Cl-         -0.201778 e
     Total       -0.100191 e

     Chemical potential of solvation (in expand-cell)
     H2O        GaussFluct   0.884168E+01 kcal/mol
     Na+        GaussFluct  -0.395782E+03 kcal/mol
     Cl-        GaussFluct   0.400910E+03 kcal/mol
     Total      GaussFluct   0.139697E+02 kcal/mol


     total cpu time spent up to now is       67.2 secs

     total energy              =     -12.38261467 Ry
     Harris-Foulkes estimate   =     -12.38259632 Ry
     estimated scf accuracy    <       0.00001584 Ry

     iteration # 28     ecut=    25.00 Ry     beta=0.20
     Davidson diagonalization with overlap
     ethr =  1.78E-07,  avg # of iterations =  1.0

     negative rho (up, down):  2.605E-05 0.000E+00

     Laue-RISM Calculation

     convergence threshold    = 1.000E-04
     iter. #     1  RMS(g-h-1)= 2.516E-02  nbox=  0
     iter. #    11  RMS(g-h-1)= 3.863E-04  nbox=  9
     iter. #    21  RMS(g-h-1)= 1.547E-04  nbox= 10
     iter. #    31  RMS(g-h-1)= 1.041E-04  nbox= 10
     iter. #    41  RMS(g-h-1)= 1.037E-04  nbox= 10
     iter. #    48  RMS(g-h-1)= 9.973E-05  nbox=  2

     End of Laue-RISM calculation


     convergence has been achieved in    48 iterations


     solvent charge   -0.10001, renormalised to   -0.10000

     Total charge of solvent (in expand-cell)
     H2O          0.000273 e
     Na+          0.101578 e
     Cl-         -0.201904 e
     Total       -0.100053 e

     Chemical potential of solvation (in expand-cell)
     H2O        GaussFluct   0.884989E+01 kcal/mol
     Na+        GaussFluct  -0.396300E+03 kcal/mol
     Cl-        GaussFluct   0.401471E+03 kcal/mol
     Total      GaussFluct   0.140205E+02 kcal/mol


     total cpu time spent up to now is       68.5 secs

     total energy              =     -12.38268053 Ry
     Harris-Foulkes estimate   =     -12.38245323 Ry
     estimated scf accuracy    <       0.00000622 Ry

     iteration # 29     ecut=    25.00 Ry     beta=0.20
     Davidson diagonalization with overlap
     ethr =  6.98E-08,  avg # of iterations =  4.3

     negative rho (up, down):  8.071E-06 0.000E+00

     Laue-RISM Calculation

     convergence threshold    = 1.000E-04
     iter. #     1  RMS(g-h-1)= 1.115E-02  nbox=  0
     iter. #    11  RMS(g-h-1)= 1.637E-04  nbox=  9
     iter. #    17  RMS(g-h-1)= 9.198E-05  nbox= 10

     End of Laue-RISM calculation


     convergence has been achieved in    17 iterations


     solvent charge   -0.10014, renormalised to   -0.10000

     Total charge of solvent (in expand-cell)
     H2O          0.000174 e
     Na+          0.101594 e
     Cl-         -0.201948 e
     Total       -0.100180 e

     Chemical potential of solvation (in expand-cell)
     H2O        GaussFluct   0.884837E+01 kcal/mol
     Na+        GaussFluct  -0.396323E+03 kcal/mol
     Cl-        GaussFluct   0.401496E+03 kcal/mol
     Total      GaussFluct   0.140208E+02 kcal/mol


     total cpu time spent up to now is       69.0 secs

     total energy              =     -12.38269297 Ry
     Harris-Foulkes estimate   =     -12.38268021 Ry
     estimated scf accuracy    <       0.00000158 Ry

     iteration # 30     ecut=    25.00 Ry     beta=0.20
     Davidson diagonalization with overlap
     ethr =  1.78E-08,  avg # of iterations =  3.0

     Laue-RISM Calculation

     convergence threshold    = 1.000E-04
     iter. #     1  RMS(g-h-1)= 2.352E-02  nbox=  0
     iter. #    11  RMS(g-h-1)= 4.972E-04  nbox= 10
     iter. #    21  RMS(g-h-1)= 2.555E-04  nbox= 10
     iter. #    29  RMS(g-h-1)= 9.329E-05  nbox= 10

     End of Laue-RISM calculation


     convergence has been achieved in    29 iterations


     solvent charge   -0.10024, renormalised to   -0.10000

     Total charge of solvent (in expand-cell)
     H2O         -0.000108 e
     Na+          0.101626 e
     Cl-         -0.201801 e
     Total       -0.100283 e

     Chemical potential of solvation (in expand-cell)
     H2O        GaussFluct   0.884079E+01 kcal/mol
     Na+        GaussFluct  -0.396144E+03 kcal/mol
     Cl-        GaussFluct   0.401300E+03 kcal/mol
     Total      GaussFluct   0.139972E+02 kcal/mol


     total cpu time spent up to now is       70.0 secs

     End of self-consistent calculation

          k = 0.0000 0.0000 0.0000 (  2491 PWs)   bands (ev):

   -16.7591 -14.5635 -11.4681  -8.4007  -4.3690  -2.4854  -1.6607  -0.5512

          k = 0.0000-0.5774 0.0000 (  2408 PWs)   bands (ev):

   -10.9649 -10.8616  -9.1000  -8.4156  -5.7520  -5.4963  -2.8330  -2.6822

          k = 0.5000-0.2887 0.0000 (  2408 PWs)   bands (ev):

   -10.9663 -10.8603  -9.1007  -8.4143  -5.7510  -5.4964  -2.8382  -2.6781

     the Fermi energy is    -5.7289 ev

!    total energy              =     -12.38269544 Ry
     Harris-Foulkes estimate   =     -12.38276858 Ry
     estimated scf accuracy    <       0.00000088 Ry

     The total energy is the sum of the following terms:

     one-electron contribution =     163.80363064 Ry
     hartree contribution      =     -79.87434442 Ry
     xc contribution           =      -4.74192195 Ry
     ewald contribution        =     -91.61035544 Ry
     solvation energy (RISM)   =       0.04464172 Ry
     smearing contrib. (-TS)   =      -0.00434599 Ry

     convergence has been achieved in  30 iterations

     Forces acting on atoms (Ry/au):

     atom    1 type  1   force =     0.00000000   -0.00005388   -0.00488574
     atom    2 type  1   force =     0.00000000    0.00031332   -0.00350508
     atom    3 type  1   force =     0.00000000   -0.00025944    0.00216141

     Total force =     0.004118     Total SCF correction =     0.001047
     SCF correction compared to forces is large: reduce conv_thr to get better values

     BFGS Geometry Optimization

     number of scf cycles    =   1
     number of bfgs steps    =   0

     energy   new            =     -12.3826954418 Ry

     new trust radius        =       0.0035050754 bohr
     new conv_thr            =       0.0000010000 Ry


ATOMIC_POSITIONS (angstrom)
Al       0.000000000   0.000000000  -2.000000000    0   0   0
Al       0.000000000   1.650000000   0.088145194    0   0   1
Al       1.430000000   0.830000000   2.171143767    0   0   1



     Writing output data file Al-NaCl_aq.save
     NEW-OLD atomic charge density approx. for the potential

     negative rho (up, down):  2.611E-08 0.000E+00

     Laue-RISM Calculation

     convergence threshold    = 1.000E-02
     iter. #     1  RMS(g-h-1)= 4.277E-01  nbox=  0
     iter. #     9  RMS(g-h-1)= 6.755E-03  nbox=  7

     End of Laue-RISM calculation


     convergence has been achieved in     9 iterations


     solvent charge   -0.09728, renormalised to   -0.10000

     Total charge of solvent (in expand-cell)
     H2O          0.001977 e
     Na+          0.101484 e
     Cl-         -0.200782 e
     Total       -0.097322 e

     Chemical potential of solvation (in expand-cell)
     H2O        GaussFluct   0.883145E+01 kcal/mol
     Na+        GaussFluct  -0.396112E+03 kcal/mol
     Cl-        GaussFluct   0.401327E+03 kcal/mol
     Total      GaussFluct   0.140460E+02 kcal/mol


     total cpu time spent up to now is       73.4 secs

     per-process dynamical memory:    19.9 Mb

     Self-consistent Calculation

     iteration #  1     ecut=    25.00 Ry     beta=0.20
     Davidson diagonalization with overlap
     ethr =  1.00E-06,  avg # of iterations =  5.3

     negative rho (up, down):  1.765E-08 0.000E+00

     Laue-RISM Calculation

     convergence threshold    = 1.000E-04
     iter. #     1  RMS(g-h-1)= 1.163E-01  nbox=  0
     iter. #    11  RMS(g-h-1)= 3.055E-03  nbox= 10
     iter. #    21  RMS(g-h-1)= 9.389E-04  nbox= 10
     iter. #    31  RMS(g-h-1)= 5.865E-04  nbox= 10
     iter. #    41  RMS(g-h-1)= 3.548E-04  nbox= 10
     iter. #    51  RMS(g-h-1)= 2.923E-04  nbox= 10
     iter. #    61  RMS(g-h-1)= 2.879E-04  nbox= 10
     iter. #    71  RMS(g-h-1)= 2.853E-04  nbox=  8
     iter. #    81  RMS(g-h-1)= 2.261E-04  nbox=  2
     iter. #    91  RMS(g-h-1)= 2.128E-04  nbox= 10
     iter. #   101  RMS(g-h-1)= 1.175E-04  nbox= 10
     iter. #   107  RMS(g-h-1)= 9.972E-05  nbox= 10

     End of Laue-RISM calculation


     convergence has been achieved in   107 iterations


     solvent charge   -0.10028, renormalised to   -0.10000

     Total charge of solvent (in expand-cell)
     H2O          0.000006 e
     Na+          0.101581 e
     Cl-         -0.201902 e
     Total       -0.100315 e

     Chemical potential of solvation (in expand-cell)
     H2O        GaussFluct   0.884890E+01 kcal/mol
     Na+        GaussFluct  -0.398651E+03 kcal/mol
     Cl-        GaussFluct   0.403980E+03 kcal/mol
     Total      GaussFluct   0.141779E+02 kcal/mol


     total cpu time spent up to now is       76.0 secs

     total energy              =     -12.38305939 Ry
     Harris-Foulkes estimate   =     -12.38217326 Ry
     estimated scf accuracy    <       0.00035640 Ry

     iteration #  2     ecut=    25.00 Ry     beta=0.20
     Davidson diagonalization with overlap
     ethr =  4.00E-06,  avg # of iterations =  3.7

     negative rho (up, down):  1.276E-08 0.000E+00

     Laue-RISM Calculation

     convergence threshold    = 2.086E-03
     iter. #     1  RMS(g-h-1)= 9.379E-02  nbox=  0
     iter. #    11  RMS(g-h-1)= 2.732E-03  nbox= 10
     iter. #    14  RMS(g-h-1)= 2.039E-03  nbox= 10

     End of Laue-RISM calculation


     convergence has been achieved in    14 iterations


     solvent charge   -0.09983, renormalised to   -0.10000

     Total charge of solvent (in expand-cell)
     H2O         -0.002514 e
     Na+          0.101765 e
     Cl-         -0.199121 e
     Total       -0.099870 e

     Chemical potential of solvation (in expand-cell)
     H2O        GaussFluct   0.873988E+01 kcal/mol
     Na+        GaussFluct  -0.396537E+03 kcal/mol
     Cl-        GaussFluct   0.401631E+03 kcal/mol
     Total      GaussFluct   0.138343E+02 kcal/mol


     total cpu time spent up to now is       76.7 secs

     total energy              =     -12.38300918 Ry
     Harris-Foulkes estimate   =     -12.38472343 Ry
     estimated scf accuracy    <       0.00976059 Ry

     iteration #  3     ecut=    25.00 Ry     beta=0.20
     Davidson diagonalization with overlap
     ethr =  4.00E-06,  avg # of iterations =  2.7

     Laue-RISM Calculation

     convergence threshold    = 1.000E-04
     iter. #     1  RMS(g-h-1)= 2.097E-02  nbox=  0
     iter. #    11  RMS(g-h-1)= 1.754E-03  nbox=  9
     iter. #    21  RMS(g-h-1)= 6.881E-04  nbox= 10
     iter. #    31  RMS(g-h-1)= 3.892E-04  nbox= 10
     iter. #    41  RMS(g-h-1)= 3.417E-04  nbox= 10
     iter. #    51  RMS(g-h-1)= 3.401E-04  nbox=  9
     iter. #    61  RMS(g-h-1)= 3.378E-04  nbox=  3
     iter. #    71  RMS(g-h-1)= 3.127E-04  nbox= 10
     iter. #    81  RMS(g-h-1)= 3.066E-04  nbox=  7
     iter. #    91  RMS(g-h-1)= 3.040E-04  nbox= 10
     iter. #   101  RMS(g-h-1)= 2.915E-04  nbox= 10
     iter. #   111  RMS(g-h-1)= 2.899E-04  nbox=  5
     iter. #   121  RMS(g-h-1)= 2.913E-04  nbox= 10
     iter. #   131  RMS(g-h-1)= 2.888E-04  nbox=  9
     iter. #   141  RMS(g-h-1)= 2.900E-04  nbox=  3
     iter. #   151  RMS(g-h-1)= 2.869E-04  nbox= 10
     iter. #   161  RMS(g-h-1)= 2.852E-04  nbox=  7
     iter. #   171  RMS(g-h-1)= 2.735E-04  nbox= 10
     iter. #   181  RMS(g-h-1)= 2.618E-04  nbox= 10
     iter. #   191  RMS(g-h-1)= 1.434E-04  nbox= 10
     iter. #   199  RMS(g-h-1)= 8.990E-05  nbox= 10

     End of Laue-RISM calculation


     convergence has been achieved in   199 iterations


     solvent charge   -0.10034, renormalised to   -0.10000

     Total charge of solvent (in expand-cell)
     H2O         -0.000137 e
     Na+          0.101606 e
     Cl-         -0.201852 e
     Total       -0.100384 e

     Chemical potential of solvation (in expand-cell)
     H2O        GaussFluct   0.884671E+01 kcal/mol
     Na+        GaussFluct  -0.396522E+03 kcal/mol
     Cl-        GaussFluct   0.401707E+03 kcal/mol
     Total      GaussFluct   0.140319E+02 kcal/mol


     total cpu time spent up to now is       82.5 secs

     End of self-consistent calculation

          k = 0.0000 0.0000 0.0000 (  2491 PWs)   bands (ev):

   -16.7570 -14.5633 -11.4690  -8.4017  -4.3702  -2.3820  -1.4953  -0.4436

          k = 0.0000-0.5774 0.0000 (  2408 PWs)   bands (ev):

   -10.9624 -10.8595  -9.0996  -8.4156  -5.7530  -5.4969  -2.8337  -2.6827

          k = 0.5000-0.2887 0.0000 (  2408 PWs)   bands (ev):

   -10.9639 -10.8582  -9.1003  -8.4143  -5.7521  -5.4971  -2.8389  -2.6792

     the Fermi energy is    -5.7299 ev

!    total energy              =     -12.38278473 Ry
     Harris-Foulkes estimate   =     -12.38277790 Ry
     estimated scf accuracy    <       0.00000033 Ry

     The total energy is the sum of the following terms:

     one-electron contribution =     163.83866430 Ry
     hartree contribution      =     -79.89063454 Ry
     xc contribution           =      -4.74168827 Ry
     ewald contribution        =     -91.62953497 Ry
     solvation energy (RISM)   =       0.04475232 Ry
     smearing contrib. (-TS)   =      -0.00434356 Ry

     convergence has been achieved in   3 iterations

     Forces acting on atoms (Ry/au):

     atom    1 type  1   force =     0.00000000   -0.00005474   -0.00549270
     atom    2 type  1   force =     0.00000000    0.00030634   -0.00190920
     atom    3 type  1   force =     0.00000000   -0.00025160    0.00109833

     Total force =     0.002203     Total SCF correction =     0.000319
     SCF correction compared to forces is large: reduce conv_thr to get better values

     number of scf cycles    =   2
     number of bfgs steps    =   1

     energy   old            =     -12.3826954418 Ry
     energy   new            =     -12.3827847274 Ry

     CASE: energy  _new < energy  _old

     new trust radius        =       0.0038555830 bohr
     new conv_thr            =       0.0000000100 Ry


ATOMIC_POSITIONS (angstrom)
Al       0.000000000   0.000000000  -2.000000000    0   0   0
Al       0.000000000   1.650000000   0.086104907    0   0   1
Al       1.430000000   0.830000000   2.172317597    0   0   1



     Writing output data file Al-NaCl_aq.save
     NEW-OLD atomic charge density approx. for the potential

     negative rho (up, down):  1.980E-08 0.000E+00

     Laue-RISM Calculation

     convergence threshold    = 2.154E-03
     iter. #     1  RMS(g-h-1)= 4.539E-01  nbox=  0
     iter. #    11  RMS(g-h-1)= 3.704E-03  nbox=  9
     iter. #    19  RMS(g-h-1)= 2.147E-03  nbox= 10

     End of Laue-RISM calculation


     convergence has been achieved in    19 iterations


     solvent charge   -0.09939, renormalised to   -0.10000

     Total charge of solvent (in expand-cell)
     H2O          0.000150 e
     Na+          0.101490 e
     Cl-         -0.201067 e
     Total       -0.099427 e

     Chemical potential of solvation (in expand-cell)
     H2O        GaussFluct   0.880684E+01 kcal/mol
     Na+        GaussFluct  -0.396541E+03 kcal/mol
     Cl-        GaussFluct   0.401679E+03 kcal/mol
     Total      GaussFluct   0.139444E+02 kcal/mol


     total cpu time spent up to now is       85.9 secs

     per-process dynamical memory:    19.9 Mb

     Self-consistent Calculation

     iteration #  1     ecut=    25.00 Ry     beta=0.20
     Davidson diagonalization with overlap
     ethr =  1.00E-06,  avg # of iterations =  2.7

     Threshold (ethr) on eigenvalues was too large:
     Diagonalizing with lowered threshold

     Davidson diagonalization with overlap
     ethr =  1.84E-08,  avg # of iterations =  4.7

     negative rho (up, down):  1.280E-08 0.000E+00

     Laue-RISM Calculation

     convergence threshold    = 4.642E-06
     iter. #     1  RMS(g-h-1)= 5.311E-03  nbox=  0
     iter. #    11  RMS(g-h-1)= 1.077E-03  nbox= 10
     iter. #    21  RMS(g-h-1)= 3.471E-04  nbox= 10
     iter. #    31  RMS(g-h-1)= 1.732E-04  nbox= 10
     iter. #    41  RMS(g-h-1)= 1.620E-04  nbox= 10
     iter. #    51  RMS(g-h-1)= 1.455E-04  nbox= 10
     iter. #    61  RMS(g-h-1)= 1.304E-04  nbox= 10
     iter. #    71  RMS(g-h-1)= 1.278E-04  nbox= 10
     iter. #    81  RMS(g-h-1)= 1.266E-04  nbox=  4
     iter. #    91  RMS(g-h-1)= 7.760E-05  nbox= 10
     iter. #   101  RMS(g-h-1)= 4.023E-05  nbox= 10
     iter. #   111  RMS(g-h-1)= 2.150E-05  nbox= 10
     iter. #   121  RMS(g-h-1)= 1.837E-05  nbox= 10
     iter. #   131  RMS(g-h-1)= 1.662E-05  nbox=  6
     iter. #   141  RMS(g-h-1)= 1.581E-05  nbox= 10
     iter. #   151  RMS(g-h-1)= 1.526E-05  nbox= 10
     iter. #   161  RMS(g-h-1)= 1.484E-05  nbox=  4
     iter. #   171  RMS(g-h-1)= 1.454E-05  nbox= 10
     iter. #   181  RMS(g-h-1)= 1.441E-05  nbox=  8
     iter. #   191  RMS(g-h-1)= 1.393E-05  nbox=  2
     iter. #   201  RMS(g-h-1)= 1.379E-05  nbox= 10
     iter. #   211  RMS(g-h-1)= 1.378E-05  nbox=  6
     iter. #   221  RMS(g-h-1)= 1.373E-05  nbox= 10
     iter. #   231  RMS(g-h-1)= 1.347E-05  nbox= 10
     iter. #   241  RMS(g-h-1)= 1.318E-05  nbox=  4
     iter. #   251  RMS(g-h-1)= 1.249E-05  nbox= 10
     iter. #   261  RMS(g-h-1)= 1.176E-05  nbox=  8
     iter. #   271  RMS(g-h-1)= 1.104E-05  nbox=  2
     iter. #   281  RMS(g-h-1)= 1.071E-05  nbox= 10
     iter. #   291  RMS(g-h-1)= 1.040E-05  nbox=  6
     iter. #   301  RMS(g-h-1)= 1.010E-05  nbox= 10
     iter. #   311  RMS(g-h-1)= 9.967E-06  nbox= 10
     iter. #   321  RMS(g-h-1)= 9.800E-06  nbox=  4
     iter. #   331  RMS(g-h-1)= 9.391E-06  nbox= 10
     iter. #   341  RMS(g-h-1)= 8.993E-06  nbox=  8
     iter. #   351  RMS(g-h-1)= 8.787E-06  nbox=  2
     iter. #   361  RMS(g-h-1)= 8.644E-06  nbox= 10
     iter. #   371  RMS(g-h-1)= 8.470E-06  nbox=  6
     iter. #   381  RMS(g-h-1)= 8.340E-06  nbox= 10
     iter. #   391  RMS(g-h-1)= 8.152E-06  nbox= 10
     iter. #   401  RMS(g-h-1)= 8.017E-06  nbox=  4
     iter. #   411  RMS(g-h-1)= 7.814E-06  nbox= 10
     iter. #   421  RMS(g-h-1)= 7.531E-06  nbox=  8
     iter. #   431  RMS(g-h-1)= 7.083E-06  nbox=  2
     iter. #   441  RMS(g-h-1)= 6.939E-06  nbox= 10
     iter. #   451  RMS(g-h-1)= 6.796E-06  nbox=  6
     iter. #   461  RMS(g-h-1)= 6.646E-06  nbox= 10
     iter. #   471  RMS(g-h-1)= 6.535E-06  nbox= 10
     iter. #   481  RMS(g-h-1)= 6.421E-06  nbox=  4
     iter. #   491  RMS(g-h-1)= 6.300E-06  nbox= 10
     iter. #   501  RMS(g-h-1)= 6.215E-06  nbox=  8
     iter. #   511  RMS(g-h-1)= 6.180E-06  nbox=  2
     iter. #   521  RMS(g-h-1)= 6.138E-06  nbox= 10
     iter. #   531  RMS(g-h-1)= 6.097E-06  nbox=  6
     iter. #   541  RMS(g-h-1)= 6.025E-06  nbox= 10
     iter. #   551  RMS(g-h-1)= 5.947E-06  nbox= 10
     iter. #   561  RMS(g-h-1)= 5.819E-06  nbox=  4
     iter. #   571  RMS(g-h-1)= 5.625E-06  nbox= 10
     iter. #   581  RMS(g-h-1)= 5.447E-06  nbox=  8
     iter. #   591  RMS(g-h-1)= 5.303E-06  nbox=  2
     iter. #   601  RMS(g-h-1)= 5.183E-06  nbox= 10
     iter. #   611  RMS(g-h-1)= 4.973E-06  nbox=  6
     iter. #   621  RMS(g-h-1)= 4.780E-06  nbox= 10
     iter. #   631  RMS(g-h-1)= 4.702E-06  nbox= 10
     iter. #   635  RMS(g-h-1)= 4.638E-06  nbox= 10

     End of Laue-RISM calculation


     convergence has been achieved in   635 iterations


     solvent charge   -0.10026, renormalised to   -0.10000

     Total charge of solvent (in expand-cell)
     H2O         -0.000089 e
     Na+          0.101573 e
     Cl-         -0.201788 e
     Total       -0.100305 e

     Chemical potential of solvation (in expand-cell)
     H2O        GaussFluct   0.885029E+01 kcal/mol
     Na+        GaussFluct  -0.396380E+03 kcal/mol
     Cl-        GaussFluct   0.401558E+03 kcal/mol
     Total      GaussFluct   0.140279E+02 kcal/mol


     total cpu time spent up to now is      104.9 secs

     total energy              =     -12.38277179 Ry
     Harris-Foulkes estimate   =     -12.38283153 Ry
     estimated scf accuracy    <       0.00000098 Ry

     iteration #  2     ecut=    25.00 Ry     beta=0.20
     Davidson diagonalization with overlap
     ethr =  1.10E-08,  avg # of iterations =  1.0

     Laue-RISM Calculation

     convergence threshold    = 4.642E-06
     iter. #     1  RMS(g-h-1)= 4.369E-03  nbox=  0
     iter. #    11  RMS(g-h-1)= 1.256E-04  nbox= 10
     iter. #    21  RMS(g-h-1)= 6.137E-05  nbox= 10
     iter. #    31  RMS(g-h-1)= 2.024E-05  nbox= 10
     iter. #    41  RMS(g-h-1)= 1.642E-05  nbox= 10
     iter. #    51  RMS(g-h-1)= 1.512E-05  nbox=  4
     iter. #    61  RMS(g-h-1)= 1.473E-05  nbox= 10
     iter. #    71  RMS(g-h-1)= 1.459E-05  nbox=  8
     iter. #    81  RMS(g-h-1)= 1.457E-05  nbox=  2
     iter. #    91  RMS(g-h-1)= 1.440E-05  nbox= 10
     iter. #   101  RMS(g-h-1)= 1.402E-05  nbox=  6
     iter. #   111  RMS(g-h-1)= 1.382E-05  nbox= 10
     iter. #   121  RMS(g-h-1)= 1.207E-05  nbox= 10
     iter. #   131  RMS(g-h-1)= 8.757E-06  nbox= 10
     iter. #   141  RMS(g-h-1)= 8.427E-06  nbox= 10
     iter. #   151  RMS(g-h-1)= 7.457E-06  nbox=  9
     iter. #   161  RMS(g-h-1)= 4.570E-06  nbox= 10

     End of Laue-RISM calculation


     convergence has been achieved in   161 iterations


     solvent charge   -0.10026, renormalised to   -0.10000

     Total charge of solvent (in expand-cell)
     H2O         -0.000087 e
     Na+          0.101573 e
     Cl-         -0.201788 e
     Total       -0.100303 e

     Chemical potential of solvation (in expand-cell)
     H2O        GaussFluct   0.885034E+01 kcal/mol
     Na+        GaussFluct  -0.396474E+03 kcal/mol
     Cl-        GaussFluct   0.401658E+03 kcal/mol
     Total      GaussFluct   0.140342E+02 kcal/mol


     total cpu time spent up to now is      110.4 secs

     total energy              =     -12.38279087 Ry
     Harris-Foulkes estimate   =     -12.38275312 Ry
     estimated scf accuracy    <       0.00002201 Ry

     iteration #  3     ecut=    25.00 Ry     beta=0.20
     Davidson diagonalization with overlap
     ethr =  1.10E-08,  avg # of iterations =  1.0

     negative rho (up, down):  1.002E-08 0.000E+00

     Laue-RISM Calculation

     convergence threshold    = 4.642E-06
     iter. #     1  RMS(g-h-1)= 5.618E-03  nbox=  0
     iter. #    11  RMS(g-h-1)= 7.641E-05  nbox=  9
     iter. #    21  RMS(g-h-1)= 3.288E-05  nbox= 10
     iter. #    31  RMS(g-h-1)= 2.430E-05  nbox= 10
     iter. #    41  RMS(g-h-1)= 2.258E-05  nbox=  2
     iter. #    51  RMS(g-h-1)= 2.241E-05  nbox= 10
     iter. #    61  RMS(g-h-1)= 2.228E-05  nbox=  6
     iter. #    71  RMS(g-h-1)= 2.086E-05  nbox= 10
     iter. #    81  RMS(g-h-1)= 1.335E-05  nbox= 10
     iter. #    91  RMS(g-h-1)= 7.129E-06  nbox= 10
     iter. #   101  RMS(g-h-1)= 4.703E-06  nbox= 10
     iter. #   102  RMS(g-h-1)= 4.620E-06  nbox= 10

     End of Laue-RISM calculation


     convergence has been achieved in   102 iterations


     solvent charge   -0.10026, renormalised to   -0.10000

     Total charge of solvent (in expand-cell)
     H2O         -0.000088 e
     Na+          0.101579 e
     Cl-         -0.201794 e
     Total       -0.100303 e

     Chemical potential of solvation (in expand-cell)
     H2O        GaussFluct   0.885097E+01 kcal/mol
     Na+        GaussFluct  -0.396424E+03 kcal/mol
     Cl-        GaussFluct   0.401604E+03 kcal/mol
     Total      GaussFluct   0.140311E+02 kcal/mol


     total cpu time spent up to now is      113.6 secs

     total energy              =     -12.38278176 Ry
     Harris-Foulkes estimate   =     -12.38280152 Ry
     estimated scf accuracy    <       0.00000017 Ry

     iteration #  4     ecut=    25.00 Ry     beta=0.20
     Davidson diagonalization with overlap
     ethr =  1.89E-09,  avg # of iterations =  4.3

     Laue-RISM Calculation

     convergence threshold    = 4.642E-06
     iter. #     1  RMS(g-h-1)= 9.386E-04  nbox=  0
     iter. #    11  RMS(g-h-1)= 1.525E-05  nbox=  9
     iter. #    21  RMS(g-h-1)= 6.375E-06  nbox= 10
     iter. #    31  RMS(g-h-1)= 5.742E-06  nbox= 10
     iter. #    41  RMS(g-h-1)= 5.391E-06  nbox=  5
     iter. #    51  RMS(g-h-1)= 5.277E-06  nbox= 10
     iter. #    61  RMS(g-h-1)= 5.288E-06  nbox=  9
     iter. #    71  RMS(g-h-1)= 5.203E-06  nbox=  3
     iter. #    77  RMS(g-h-1)= 4.485E-06  nbox=  9

     End of Laue-RISM calculation


     convergence has been achieved in    77 iterations


     solvent charge   -0.10026, renormalised to   -0.10000

     Total charge of solvent (in expand-cell)
     H2O         -0.000084 e
     Na+          0.101578 e
     Cl-         -0.201795 e
     Total       -0.100301 e

     Chemical potential of solvation (in expand-cell)
     H2O        GaussFluct   0.885105E+01 kcal/mol
     Na+        GaussFluct  -0.396430E+03 kcal/mol
     Cl-        GaussFluct   0.401611E+03 kcal/mol
     Total      GaussFluct   0.140318E+02 kcal/mol


     total cpu time spent up to now is      116.3 secs

     total energy              =     -12.38278250 Ry
     Harris-Foulkes estimate   =     -12.38277969 Ry
     estimated scf accuracy    <       0.00000004 Ry

     iteration #  5     ecut=    25.00 Ry     beta=0.20
     Davidson diagonalization with overlap
     ethr =  4.05E-10,  avg # of iterations =  3.3

     Laue-RISM Calculation

     convergence threshold    = 4.642E-06
     iter. #     1  RMS(g-h-1)= 3.155E-03  nbox=  0
     iter. #    11  RMS(g-h-1)= 4.316E-05  nbox=  9
     iter. #    21  RMS(g-h-1)= 1.228E-05  nbox= 10
     iter. #    31  RMS(g-h-1)= 9.821E-06  nbox= 10
     iter. #    41  RMS(g-h-1)= 9.715E-06  nbox=  3
     iter. #    51  RMS(g-h-1)= 8.674E-06  nbox= 10
     iter. #    61  RMS(g-h-1)= 6.072E-06  nbox= 10
     iter. #    71  RMS(g-h-1)= 4.737E-06  nbox=  4
     iter. #    75  RMS(g-h-1)= 4.632E-06  nbox=  8

     End of Laue-RISM calculation


     convergence has been achieved in    75 iterations


     solvent charge   -0.10026, renormalised to   -0.10000

     Total charge of solvent (in expand-cell)
     H2O         -0.000085 e
     Na+          0.101579 e
     Cl-         -0.201794 e
     Total       -0.100300 e

     Chemical potential of solvation (in expand-cell)
     H2O        GaussFluct   0.885106E+01 kcal/mol
     Na+        GaussFluct  -0.396444E+03 kcal/mol
     Cl-        GaussFluct   0.401626E+03 kcal/mol
     Total      GaussFluct   0.140327E+02 kcal/mol


     total cpu time spent up to now is      119.2 secs

     total energy              =     -12.38278563 Ry
     Harris-Foulkes estimate   =     -12.38277976 Ry
     estimated scf accuracy    <       0.00000003 Ry

     iteration #  6     ecut=    25.00 Ry     beta=0.20
     Davidson diagonalization with overlap
     ethr =  2.93E-10,  avg # of iterations =  3.0

     Laue-RISM Calculation

     convergence threshold    = 4.642E-06
     iter. #     1  RMS(g-h-1)= 2.059E-03  nbox=  0
     iter. #    11  RMS(g-h-1)= 3.110E-05  nbox=  9
     iter. #    21  RMS(g-h-1)= 1.218E-05  nbox= 10
     iter. #    31  RMS(g-h-1)= 9.030E-06  nbox= 10
     iter. #    41  RMS(g-h-1)= 8.841E-06  nbox= 10
     iter. #    51  RMS(g-h-1)= 8.813E-06  nbox=  6
     iter. #    61  RMS(g-h-1)= 8.804E-06  nbox= 10
     iter. #    71  RMS(g-h-1)= 8.935E-06  nbox= 10
     iter. #    81  RMS(g-h-1)= 8.944E-06  nbox=  4
     iter. #    91  RMS(g-h-1)= 8.312E-06  nbox= 10
     iter. #   101  RMS(g-h-1)= 8.083E-06  nbox=  7
     iter. #   111  RMS(g-h-1)= 7.451E-06  nbox= 10
     iter. #   121  RMS(g-h-1)= 6.267E-06  nbox= 10
     iter. #   131  RMS(g-h-1)= 4.381E-06  nbox= 10

     End of Laue-RISM calculation


     convergence has been achieved in   131 iterations


     solvent charge   -0.10027, renormalised to   -0.10000

     Total charge of solvent (in expand-cell)
     H2O         -0.000092 e
     Na+          0.101582 e
     Cl-         -0.201798 e
     Total       -0.100308 e

     Chemical potential of solvation (in expand-cell)
     H2O        GaussFluct   0.885120E+01 kcal/mol
     Na+        GaussFluct  -0.396424E+03 kcal/mol
     Cl-        GaussFluct   0.401604E+03 kcal/mol
     Total      GaussFluct   0.140313E+02 kcal/mol


     total cpu time spent up to now is      123.7 secs

     total energy              =     -12.38278201 Ry
     Harris-Foulkes estimate   =     -12.38278993 Ry
     estimated scf accuracy    <       0.00000001 Ry

     iteration #  7     ecut=    25.00 Ry     beta=0.20
     Davidson diagonalization with overlap
     ethr =  1.45E-10,  avg # of iterations =  2.7

     Laue-RISM Calculation

     convergence threshold    = 4.642E-06
     iter. #     1  RMS(g-h-1)= 1.842E-03  nbox=  0
     iter. #    11  RMS(g-h-1)= 3.731E-05  nbox= 10
     iter. #    21  RMS(g-h-1)= 1.500E-05  nbox= 10
     iter. #    31  RMS(g-h-1)= 5.665E-06  nbox= 10
     iter. #    37  RMS(g-h-1)= 4.628E-06  nbox= 10

     End of Laue-RISM calculation


     convergence has been achieved in    37 iterations


     solvent charge   -0.10027, renormalised to   -0.10000

     Total charge of solvent (in expand-cell)
     H2O         -0.000096 e
     Na+          0.101583 e
     Cl-         -0.201795 e
     Total       -0.100309 e

     Chemical potential of solvation (in expand-cell)
     H2O        GaussFluct   0.885108E+01 kcal/mol
     Na+        GaussFluct  -0.396409E+03 kcal/mol
     Cl-        GaussFluct   0.401588E+03 kcal/mol
     Total      GaussFluct   0.140300E+02 kcal/mol


     total cpu time spent up to now is      124.7 secs

     End of self-consistent calculation

          k = 0.0000 0.0000 0.0000 (  2491 PWs)   bands (ev):

   -16.7497 -14.5570 -11.4647  -8.3975  -4.3664  -2.3762  -1.4894  -0.4382

          k = 0.0000-0.5774 0.0000 (  2408 PWs)   bands (ev):

   -10.9550 -10.8522  -9.0931  -8.4094  -5.7487  -5.4924  -2.8294  -2.6792

          k = 0.5000-0.2887 0.0000 (  2408 PWs)   bands (ev):

   -10.9565 -10.8509  -9.0938  -8.4081  -5.7478  -5.4926  -2.8345  -2.6752

     the Fermi energy is    -5.7256 ev

!    total energy              =     -12.38277994 Ry
     Harris-Foulkes estimate   =     -12.38278613 Ry
     estimated scf accuracy    <          3.4E-09 Ry

     The total energy is the sum of the following terms:

     one-electron contribution =     163.87598327 Ry
     hartree contribution      =     -79.90858602 Ry
     xc contribution           =      -4.74135856 Ry
     ewald contribution        =     -91.64922258 Ry
     solvation energy (RISM)   =       0.04474645 Ry
     smearing contrib. (-TS)   =      -0.00434248 Ry

     convergence has been achieved in   7 iterations

     Forces acting on atoms (Ry/au):

     atom    1 type  1   force =     0.00000000   -0.00005254   -0.00596249
     atom    2 type  1   force =     0.00000000    0.00030677   -0.00048101
     atom    3 type  1   force =     0.00000000   -0.00025423    0.00028156

     Total force =     0.000557     Total SCF correction =     0.000079
     SCF correction compared to forces is large: reduce conv_thr to get better values

     bfgs converged in   3 scf cycles and   2 bfgs steps
     (criteria: energy <  1.0E-04, force <  1.0E-03)

     End of BFGS Geometry Optimization

     Final energy   =     -12.3827799402 Ry
Begin final coordinates

ATOMIC_POSITIONS (angstrom)
Al       0.000000000   0.000000000  -2.000000000    0   0   0
Al       0.000000000   1.650000000   0.086104907    0   0   1
Al       1.430000000   0.830000000   2.172317597    0   0   1
End final coordinates



     Writing output data file Al-NaCl_aq.save

     init_run     :      8.69s CPU      8.99s WALL (       1 calls)
     electrons    :     90.24s CPU     94.26s WALL (       3 calls)
     update_pot   :      0.35s CPU      0.35s WALL (       2 calls)
     forces       :      3.95s CPU      3.94s WALL (       3 calls)

     Called by init_run:
     wfcinit      :      0.01s CPU      0.01s WALL (       1 calls)
     potinit      :      8.50s CPU      8.79s WALL (       1 calls)

     Called by electrons:
     c_bands      :      1.42s CPU      1.48s WALL (      41 calls)
     sum_band     :      0.37s CPU      0.38s WALL (      41 calls)
     v_of_rho     :      1.17s CPU      1.18s WALL (      43 calls)
     mix_rho      :      0.09s CPU      0.09s WALL (      41 calls)

     Called by c_bands:
     init_us_2    :      0.03s CPU      0.03s WALL (     258 calls)
     cegterg      :      1.37s CPU      1.42s WALL (     123 calls)

     Called by sum_band:

     Called by *egterg:
     h_psi        :      1.14s CPU      1.19s WALL (     496 calls)
     g_psi        :      0.00s CPU      0.01s WALL (     370 calls)
     cdiaghg      :      0.06s CPU      0.06s WALL (     484 calls)

     Called by h_psi:
     h_psi:pot    :      1.14s CPU      1.18s WALL (     496 calls)
     h_psi:calbec :      0.07s CPU      0.07s WALL (     496 calls)
     vloc_psi     :      1.02s CPU      1.07s WALL (     496 calls)
     add_vuspsi   :      0.04s CPU      0.05s WALL (     496 calls)

     General routines
     calbec       :      0.08s CPU      0.08s WALL (     532 calls)
     fft          :      0.46s CPU      0.48s WALL (     739 calls)
     ffts         :      0.03s CPU      0.03s WALL (      84 calls)
     fftw         :      1.15s CPU      1.15s WALL (    6136 calls)
     fftc         :      0.04s CPU      0.04s WALL (      86 calls)
     interpolate  :      0.07s CPU      0.08s WALL (      84 calls)
     davcio       :      0.00s CPU      0.00s WALL (       3 calls)

     Parallel routines
     fft_scatter  :      4.88s CPU      5.12s WALL (   32416 calls)

     RISM routines
     1DRISM_pre   :      0.00s CPU      0.00s WALL (       1 calls)
     1DRISM_run   :     14.57s CPU     14.61s WALL (       1 calls)
     3DRISM_pre   :      1.83s CPU      1.83s WALL (       1 calls)
     3DRISM_run   :     94.51s CPU     98.78s WALL (      43 calls)
     3DRISM_ions  :      1.52s CPU      1.52s WALL (       2 calls)
     3DRISM_for   :      3.68s CPU      3.68s WALL (       3 calls)
     3DRISM_vsol  :      0.04s CPU      0.05s WALL (      43 calls)
     3DRISM_esol  :      0.00s CPU      0.00s WALL (      43 calls)

     PWSCF        :  2m 1.40s CPU     2m 5.89s WALL


   This run was terminated on:  23:21:41   9Feb2017            

=------------------------------------------------------------------------------=
   JOB DONE.
=------------------------------------------------------------------------------=
