
     Program PWSCF v.6.1 starts on  1Mar2017 at  1:38:27 

     This program is part of the open-source Quantum ESPRESSO suite
     for quantum simulation of materials; please cite
         "P. Giannozzi et al., J. Phys.:Condens. Matter 21 395502 (2009);
          URL http://www.quantum-espresso.org", 
     in publications or presentations arising from this work. More details at
     http://www.quantum-espresso.org/quote

     Parallel version (MPI & OpenMP), running on       4 processor cores
     Number of MPI processes:                 4
     Threads/MPI process:                     1
     R & G space division:  proc/nbgrp/npool/nimage =       4
     Waiting for input...
     Reading input from standard input

     Current dimensions of program PWSCF are:
     Max number of different atomic species (ntypx) = 10
     Max number of k-points (npk) =  40000
     Max angular momentum in pseudopotentials (lmaxx) =  3
     Message from routine iosys_1drism:
     default density from MOL file(H2O.spc.MOL) is used

     Subspace diagonalization in iterative solution of the eigenvalue problem:
     a serial algorithm will be used

     Message from routine setup:
     no reason to have ecutrho>4*ecutwfc

     Molecule # 1 for H2O read from file:
     /home/nisihara/QE/espresso/pseudo/H2O.spc.MOL
     Density:
         0.56829228E+01 cell^-1
         0.49533750E-02 bohr^-3
         0.55506881E+02 mol/L
         0.99997200E+00 g/cm^3
     Number of atoms:   3
     Atoms: 
       #  atom      X (angs)      Y (angs)      Z (angs)      Q (e)         E (kcal/mol)  S (angs)
       1  O/h2o     0.00000000    0.00000000    0.00000000   -0.82000000    0.15540000    3.16600000
       2  H/h2o     0.81649000    0.57736000    0.00000000    0.41000000    0.04600000    1.00000000
       3  H/h2o    -0.81649000    0.57736000    0.00000000    0.41000000    0.04600000    1.00000000


     Molecule # 2 for Na+ read from file:
     /home/nisihara/QE/espresso/pseudo/Na+.aq.MOL
     Density:
         0.51191156E+00 cell^-1
         0.44619468E-03 bohr^-3
         0.50000000E+01 mol/L
         0.11494885E+00 g/cm^3
     Number of atoms:   1
     Atoms: 
       #  atom      X (angs)      Y (angs)      Z (angs)      Q (e)         E (kcal/mol)  S (angs)
       1  Na        0.00000000    0.00000000    0.00000000    1.00000000    0.13010000    2.35000000


     Molecule # 3 for Cl- read from file:
     /home/nisihara/QE/espresso/pseudo/Cl-.aq.MOL
     Density:
         0.51191156E+00 cell^-1
         0.44619468E-03 bohr^-3
         0.50000000E+01 mol/L
         0.17726350E+00 g/cm^3
     Number of atoms:   1
     Atoms: 
       #  atom      X (angs)      Y (angs)      Z (angs)      Q (e)         E (kcal/mol)  S (angs)
       1  Cl        0.00000000    0.00000000    0.00000000   -1.00000000    0.10010000    4.40000000


     1D-RISM info
     ------------
     closure equation        =           KH
     temperature             =     300.0000  kelvin
     coulomb smearing radius =       2.0000  bohr
     number of solvent sites =            5
     number of grids         =         1252
     maximum of R-space      =     249.8003  bohr
     maximum of G-space      =      15.7268  bohr^-1
     number of iterations    =        40000
     convergence threshold   =      1.0E-08
     Gaussian width of bonds =       0.4000  bohr
     size of MDIIS           =           20
     step of MDIIS           =       0.5000
     number of processes     =            4


     1D-RISM Calculation

     iter. #     1  RMS(g-h-1)= 1.374E-03  nbox=  0  T= 2400.00K
     iter. #   101  RMS(g-h-1)= 3.179E-04  nbox=  2  T= 1600.00K
     iter. #   201  RMS(g-h-1)= 1.229E-05  nbox= 10  T= 1066.67K
     iter. #   301  RMS(g-h-1)= 5.001E-06  nbox= 15  T=  711.11K
     iter. #   401  RMS(g-h-1)= 1.168E-06  nbox=  2  T=  711.11K
     iter. #   501  RMS(g-h-1)= 1.100E-06  nbox= 20  T=  474.07K
     iter. #   601  RMS(g-h-1)= 3.850E-06  nbox= 20  T=  316.05K
     iter. #   701  RMS(g-h-1)= 5.858E-06  nbox= 12  T=  300.00K
     iter. #   801  RMS(g-h-1)= 5.605E-07  nbox= 20  T=  300.00K
     iter. #   901  RMS(g-h-1)= 3.119E-07  nbox= 20  T=  300.00K
     iter. #  1001  RMS(g-h-1)= 2.227E-07  nbox= 20  T=  300.00K
     iter. #  1101  RMS(g-h-1)= 1.738E-07  nbox= 20  T=  300.00K
     iter. #  1201  RMS(g-h-1)= 1.478E-07  nbox= 20  T=  300.00K
     iter. #  1301  RMS(g-h-1)= 1.237E-07  nbox= 20  T=  300.00K
     iter. #  1401  RMS(g-h-1)= 1.104E-07  nbox= 20  T=  300.00K
     iter. #  1501  RMS(g-h-1)= 9.603E-08  nbox= 20  T=  300.00K
     iter. #  1601  RMS(g-h-1)= 7.979E-08  nbox= 20  T=  300.00K
     iter. #  1701  RMS(g-h-1)= 7.239E-08  nbox= 20  T=  300.00K
     iter. #  1801  RMS(g-h-1)= 6.929E-08  nbox= 20  T=  300.00K
     iter. #  1901  RMS(g-h-1)= 6.506E-08  nbox= 20  T=  300.00K
     iter. #  2001  RMS(g-h-1)= 5.884E-08  nbox= 20  T=  300.00K
     iter. #  2101  RMS(g-h-1)= 5.412E-08  nbox= 20  T=  300.00K
     iter. #  2201  RMS(g-h-1)= 4.860E-08  nbox= 20  T=  300.00K
     iter. #  2301  RMS(g-h-1)= 4.464E-08  nbox= 20  T=  300.00K
     iter. #  2401  RMS(g-h-1)= 4.201E-08  nbox= 20  T=  300.00K
     iter. #  2501  RMS(g-h-1)= 3.942E-08  nbox= 20  T=  300.00K
     iter. #  2601  RMS(g-h-1)= 3.795E-08  nbox= 20  T=  300.00K
     iter. #  2701  RMS(g-h-1)= 3.541E-08  nbox= 20  T=  300.00K
     iter. #  2801  RMS(g-h-1)= 3.430E-08  nbox= 20  T=  300.00K
     iter. #  2901  RMS(g-h-1)= 3.349E-08  nbox= 20  T=  300.00K
     iter. #  3001  RMS(g-h-1)= 3.175E-08  nbox= 20  T=  300.00K
     iter. #  3101  RMS(g-h-1)= 2.939E-08  nbox= 20  T=  300.00K
     iter. #  3201  RMS(g-h-1)= 2.693E-08  nbox= 20  T=  300.00K
     iter. #  3301  RMS(g-h-1)= 2.556E-08  nbox= 20  T=  300.00K
     iter. #  3401  RMS(g-h-1)= 2.463E-08  nbox= 20  T=  300.00K
     iter. #  3501  RMS(g-h-1)= 2.393E-08  nbox= 20  T=  300.00K
     iter. #  3601  RMS(g-h-1)= 2.333E-08  nbox= 20  T=  300.00K
     iter. #  3701  RMS(g-h-1)= 2.283E-08  nbox= 20  T=  300.00K
     iter. #  3801  RMS(g-h-1)= 2.229E-08  nbox= 20  T=  300.00K
     iter. #  3901  RMS(g-h-1)= 2.158E-08  nbox= 20  T=  300.00K
     iter. #  4001  RMS(g-h-1)= 2.102E-08  nbox= 20  T=  300.00K
     iter. #  4101  RMS(g-h-1)= 2.021E-08  nbox= 20  T=  300.00K
     iter. #  4201  RMS(g-h-1)= 1.946E-08  nbox= 20  T=  300.00K
     iter. #  4301  RMS(g-h-1)= 1.829E-08  nbox= 20  T=  300.00K
     iter. #  4401  RMS(g-h-1)= 1.784E-08  nbox= 20  T=  300.00K
     iter. #  4501  RMS(g-h-1)= 1.723E-08  nbox= 20  T=  300.00K
     iter. #  4601  RMS(g-h-1)= 1.671E-08  nbox= 20  T=  300.00K
     iter. #  4701  RMS(g-h-1)= 1.650E-08  nbox= 20  T=  300.00K
     iter. #  4801  RMS(g-h-1)= 1.619E-08  nbox= 20  T=  300.00K
     iter. #  4901  RMS(g-h-1)= 1.590E-08  nbox= 20  T=  300.00K
     iter. #  5001  RMS(g-h-1)= 1.554E-08  nbox= 20  T=  300.00K
     iter. #  5101  RMS(g-h-1)= 1.506E-08  nbox= 20  T=  300.00K
     iter. #  5201  RMS(g-h-1)= 1.465E-08  nbox= 20  T=  300.00K
     iter. #  5301  RMS(g-h-1)= 1.444E-08  nbox= 20  T=  300.00K
     iter. #  5401  RMS(g-h-1)= 1.417E-08  nbox= 20  T=  300.00K
     iter. #  5501  RMS(g-h-1)= 1.519E-08  nbox= 11  T=  300.00K
     iter. #  5601  RMS(g-h-1)= 1.371E-08  nbox= 20  T=  300.00K
     iter. #  5701  RMS(g-h-1)= 1.346E-08  nbox= 20  T=  300.00K
     iter. #  5801  RMS(g-h-1)= 1.335E-08  nbox= 20  T=  300.00K
     iter. #  5901  RMS(g-h-1)= 1.265E-08  nbox= 20  T=  300.00K
     iter. #  6001  RMS(g-h-1)= 1.242E-08  nbox= 20  T=  300.00K
     iter. #  6101  RMS(g-h-1)= 1.215E-08  nbox= 20  T=  300.00K
     iter. #  6201  RMS(g-h-1)= 1.182E-08  nbox= 20  T=  300.00K
     iter. #  6301  RMS(g-h-1)= 1.154E-08  nbox= 20  T=  300.00K
     iter. #  6401  RMS(g-h-1)= 1.137E-08  nbox= 20  T=  300.00K
     iter. #  6501  RMS(g-h-1)= 1.122E-08  nbox= 20  T=  300.00K
     iter. #  6601  RMS(g-h-1)= 1.096E-08  nbox= 20  T=  300.00K
     iter. #  6701  RMS(g-h-1)= 1.065E-08  nbox= 20  T=  300.00K
     iter. #  6801  RMS(g-h-1)= 1.037E-08  nbox= 20  T=  300.00K
     iter. #  6892  RMS(g-h-1)= 9.992E-09  nbox= 20  T=  300.00K

     End of 1D-RISM calculation


     convergence has been achieved in  6892 iterations


     Chemical potential of solvation

     H2O        H2O        Closure      0.755718E+01 kcal/mol
                           GaussFluct   0.441134E+01 kcal/mol

                Na+        Closure     -0.140207E+01 kcal/mol
                           GaussFluct  -0.158537E+01 kcal/mol

                Cl-        Closure     -0.246933E+00 kcal/mol
                           GaussFluct  -0.472428E+00 kcal/mol

                Total      Closure      0.590818E+01 kcal/mol
                           GaussFluct   0.235354E+01 kcal/mol

     Na+        H2O        Closure     -0.155649E+02 kcal/mol
                           GaussFluct  -0.175998E+02 kcal/mol

                Na+        Closure      0.109759E+06 kcal/mol
                           GaussFluct   0.109759E+06 kcal/mol

                Cl-        Closure     -0.109823E+06 kcal/mol
                           GaussFluct  -0.109823E+06 kcal/mol

                Total      Closure     -0.795583E+02 kcal/mol
                           GaussFluct  -0.818127E+02 kcal/mol

     Cl-        H2O        Closure     -0.274130E+01 kcal/mol
                           GaussFluct  -0.524460E+01 kcal/mol

                Na+        Closure     -0.109823E+06 kcal/mol
                           GaussFluct  -0.109823E+06 kcal/mol

                Cl-        Closure      0.109762E+06 kcal/mol
                           GaussFluct   0.109762E+06 kcal/mol

                Total      Closure     -0.633137E+02 kcal/mol
                           GaussFluct  -0.660954E+02 kcal/mol


     Parallelization info
     --------------------
     sticks:   dense  smooth     PW     G-vecs:    dense   smooth      PW
     Min         112      49     15                16305     4831     869
     Max         113      50     16                16313     4864     886
     Sum         451     199     61                65239    19411    3501



     bravais-lattice index     =            4
     lattice parameter (alat)  =       5.4046  a.u.
     unit-cell volume          =    1147.2830 (a.u.)^3
     number of atoms/cell      =            3
     number of atomic types    =            1
     number of electrons       =         8.90
     number of Kohn-Sham states=            8
     kinetic-energy cutoff     =      25.0000  Ry
     charge density cutoff     =     225.0000  Ry
     convergence threshold     =      1.0E-06
     mixing beta               =       0.2000
     number of iterations used =            8  plain     mixing
     Exchange-correlation      =  SLA  PW   PBE  PBE ( 1  4  3  4 0 0)
     nstep                     =           50


     Effective Screening Medium Method
     =================================
     Boundary Conditions: Vacuum-Slab-Vacuum
     grid points for fit at edges     =        4 


     celldm(1)=   5.404617  celldm(2)=   0.000000  celldm(3)=   8.391608
     celldm(4)=   0.000000  celldm(5)=   0.000000  celldm(6)=   0.000000

     crystal axes: (cart. coord. in units of alat)
               a(1) = (   1.000000   0.000000   0.000000 )  
               a(2) = (  -0.500000   0.866025   0.000000 )  
               a(3) = (   0.000000   0.000000   8.391608 )  

     reciprocal axes: (cart. coord. in units 2 pi/alat)
               b(1) = (  1.000000  0.577350 -0.000000 )  
               b(2) = (  0.000000  1.154701  0.000000 )  
               b(3) = (  0.000000 -0.000000  0.119167 )  


     PseudoPot. # 1 for Al read from file:
     /home/nisihara/QE/espresso/pseudo/Al.pbe-rrkj.UPF
     MD5 check sum: b5320f8fdc07ab0d74f109f4aa58256b
     Pseudo is Norm-conserving, Zval =  3.0
     Generated by new atomic code, or converted to UPF format
     Using radial grid of  879 points,  4 beta functions with: 
                l(1) =   0
                l(2) =   0
                l(3) =   1
                l(4) =   1

     atomic species   valence    mass     pseudopotential
        Al             3.00    26.98154     Al( 1.00)

      2 Sym. Ops. (no inversion) found



   Cartesian axes

     site n.     atom                  positions (alat units)
         1           Al  tau(   1) = (   0.0000000   0.0000000  -0.6993007  )
         2           Al  tau(   2) = (  -0.0000000   0.5769231   0.0314685  )
         3           Al  tau(   3) = (   0.5000000   0.2902098   0.7587413  )

     number of k points=     3  gaussian smearing, width (Ry)=  0.0100
                       cart. coord. in units 2pi/alat
        k(    1) = (   0.0000000   0.0000000   0.0000000), wk =   0.5000000
        k(    2) = (   0.0000000  -0.5773503   0.0000000), wk =   0.5000000
        k(    3) = (   0.5000000  -0.2886751   0.0000000), wk =   1.0000000

     Dense  grid:    65239 G-vectors     FFT dimensions: (  25,  25, 225)

     Smooth grid:    19411 G-vectors     FFT dimensions: (  18,  18, 150)

     Estimated max dynamical RAM per process >       9.74MB

     Estimated total allocated dynamical RAM >      38.95MB

     Solute:
       # atom     E (kcal/mol)  S (angs)
       1  Al      0.50500000    4.00815333    UFF
       2  Al      0.50500000    4.00815333    UFF
       3  Al      0.50500000    4.00815333    UFF


     Laue-RISM info
     --------------
     closure equation        =           KH
     temperature             =     300.0000  kelvin
     coulomb smearing radius =       2.0000  bohr
     number of solvent sites =            4
     solvent sites           =    O/h2o   H/h2o      Na      Cl
     number of iterations    =         2000
     convergence threshold   =      1.0E-04
     size of MDIIS           =           10
     step of MDIIS           =       0.8000
     solvent cutoff          =     100.0000  Ry
     Custom grid:    19411 G-vectors     FFT dimensions: (  18,  18, 150)

     Boundary Conditions        : Vacuum-Slab-Solvent
     unit-cell (in bohr)        : [ -22.676714  22.676714]
     expand-cell (in bohr)      : [ -22.676714  74.077264]
     solvent of right (in bohr) : [   0.000000  74.077264]
     buffer  of right (in bohr) : [  -3.930630   0.000000]
     reference of potential     : right-hand side
     #grids to fit at edges of unit-cell =    4
     Laue grid:      199 Gxy-vectors     FFT dimensions: (  18,  18, 320)


     Initial potential from superposition of free atoms

     starting charge    8.99223, renormalised to    8.90000

     negative rho (up, down):  5.681E-06 0.000E+00

     Laue-RISM Calculation

     convergence threshold    = 1.000E-02
     iter. #     1  RMS(g-h-1)= 2.006E+01  nbox=  0
     iter. #    11  RMS(g-h-1)= 1.604E+00  nbox= 10
     iter. #    21  RMS(g-h-1)= 6.806E-01  nbox= 10
     iter. #    31  RMS(g-h-1)= 2.118E-01  nbox= 10
     iter. #    41  RMS(g-h-1)= 7.850E-02  nbox= 10
     iter. #    51  RMS(g-h-1)= 5.290E-02  nbox= 10
     iter. #    61  RMS(g-h-1)= 5.259E-02  nbox= 10
     iter. #    71  RMS(g-h-1)= 5.325E-02  nbox=  9
     iter. #    81  RMS(g-h-1)= 4.415E-02  nbox= 10
     iter. #    91  RMS(g-h-1)= 3.505E-02  nbox= 10
     iter. #   101  RMS(g-h-1)= 3.450E-02  nbox=  3
     iter. #   111  RMS(g-h-1)= 3.399E-02  nbox= 10
     iter. #   121  RMS(g-h-1)= 3.440E-02  nbox=  7
     iter. #   131  RMS(g-h-1)= 3.427E-02  nbox= 10
     iter. #   141  RMS(g-h-1)= 3.379E-02  nbox= 10
     iter. #   151  RMS(g-h-1)= 3.329E-02  nbox=  5
     iter. #   161  RMS(g-h-1)= 3.238E-02  nbox= 10
     iter. #   171  RMS(g-h-1)= 3.109E-02  nbox=  9
     iter. #   181  RMS(g-h-1)= 3.018E-02  nbox=  3
     iter. #   191  RMS(g-h-1)= 3.007E-02  nbox= 10
     iter. #   201  RMS(g-h-1)= 2.941E-02  nbox=  7
     iter. #   211  RMS(g-h-1)= 2.808E-02  nbox= 10
     iter. #   221  RMS(g-h-1)= 2.685E-02  nbox= 10
     iter. #   231  RMS(g-h-1)= 2.181E-02  nbox= 10
     iter. #   241  RMS(g-h-1)= 1.628E-02  nbox= 10
     iter. #   251  RMS(g-h-1)= 1.420E-02  nbox= 10
     iter. #   261  RMS(g-h-1)= 1.118E-02  nbox= 10
     iter. #   271  RMS(g-h-1)= 1.071E-02  nbox=  5
     iter. #   276  RMS(g-h-1)= 9.471E-03  nbox= 10

     End of Laue-RISM calculation


     convergence has been achieved in   276 iterations


     solvent charge   -0.12112, renormalised to   -0.10000

     Total charge of solvent (in expand-cell)
     H2O         -0.013903 e
     Na+          0.099391 e
     Cl-         -0.206442 e
     Total       -0.120954 e

     Chemical potential of solvation (in expand-cell)
     H2O        GaussFluct   0.725894E+01 kcal/mol
     Na+        GaussFluct  -0.477235E+03 kcal/mol
     Cl-        GaussFluct   0.488033E+03 kcal/mol
     Total      GaussFluct   0.180567E+02 kcal/mol

     Starting wfc are   12 randomized atomic wfcs

     total cpu time spent up to now is       34.3 secs

     per-process dynamical memory:    20.4 Mb

     Self-consistent Calculation

     iteration #  1     ecut=    25.00 Ry     beta=0.20
     Davidson diagonalization with overlap
     c_bands:  1 eigenvalues not converged
     ethr =  1.00E-02,  avg # of iterations =  9.3

     negative rho (up, down):  1.574E-08 0.000E+00

     Laue-RISM Calculation

     convergence threshold    = 1.000E-02
     iter. #     1  RMS(g-h-1)= 6.413E+00  nbox=  0
     iter. #    11  RMS(g-h-1)= 4.864E-01  nbox= 10
     iter. #    21  RMS(g-h-1)= 1.790E-01  nbox= 10
     iter. #    31  RMS(g-h-1)= 1.234E-01  nbox= 10
     iter. #    41  RMS(g-h-1)= 1.143E-01  nbox= 10
     iter. #    51  RMS(g-h-1)= 9.812E-02  nbox=  7
     iter. #    61  RMS(g-h-1)= 9.410E-02  nbox= 10
     iter. #    71  RMS(g-h-1)= 6.188E-02  nbox= 10
     iter. #    81  RMS(g-h-1)= 5.626E-02  nbox= 10
     iter. #    91  RMS(g-h-1)= 5.720E-02  nbox=  7
     iter. #   101  RMS(g-h-1)= 5.516E-02  nbox= 10
     iter. #   111  RMS(g-h-1)= 5.574E-02  nbox= 10
     iter. #   121  RMS(g-h-1)= 5.451E-02  nbox=  5
     iter. #   131  RMS(g-h-1)= 5.696E-02  nbox= 10
     iter. #   141  RMS(g-h-1)= 4.860E-02  nbox=  9
     iter. #   151  RMS(g-h-1)= 3.843E-02  nbox= 10
     iter. #   161  RMS(g-h-1)= 3.822E-02  nbox= 10
     iter. #   171  RMS(g-h-1)= 3.822E-02  nbox=  5
     iter. #   181  RMS(g-h-1)= 3.791E-02  nbox= 10
     iter. #   191  RMS(g-h-1)= 3.694E-02  nbox=  9
     iter. #   201  RMS(g-h-1)= 3.526E-02  nbox=  3
     iter. #   211  RMS(g-h-1)= 3.514E-02  nbox= 10
     iter. #   221  RMS(g-h-1)= 3.251E-02  nbox=  7
     iter. #   231  RMS(g-h-1)= 3.441E-02  nbox= 10
     iter. #   241  RMS(g-h-1)= 3.092E-02  nbox= 10
     iter. #   251  RMS(g-h-1)= 2.955E-02  nbox=  4
     iter. #   261  RMS(g-h-1)= 3.378E-02  nbox= 10
     iter. #   271  RMS(g-h-1)= 2.543E-02  nbox=  8
     iter. #   281  RMS(g-h-1)= 2.453E-02  nbox= 10
     iter. #   291  RMS(g-h-1)= 2.419E-02  nbox= 10
     iter. #   301  RMS(g-h-1)= 2.310E-02  nbox=  5
     iter. #   311  RMS(g-h-1)= 2.345E-02  nbox= 10
     iter. #   321  RMS(g-h-1)= 2.254E-02  nbox=  8
     iter. #   331  RMS(g-h-1)= 2.160E-02  nbox=  2
     iter. #   341  RMS(g-h-1)= 2.107E-02  nbox= 10
     iter. #   351  RMS(g-h-1)= 2.997E-02  nbox= 10
     iter. #   361  RMS(g-h-1)= 1.578E-02  nbox= 10
     iter. #   370  RMS(g-h-1)= 9.263E-03  nbox= 10

     End of Laue-RISM calculation


     convergence has been achieved in   370 iterations


     solvent charge   -0.13121, renormalised to   -0.10000

     Total charge of solvent (in expand-cell)
     H2O         -0.041216 e
     Na+          0.104243 e
     Cl-         -0.194204 e
     Total       -0.131177 e

     Chemical potential of solvation (in expand-cell)
     H2O        GaussFluct   0.577341E+01 kcal/mol
     Na+        GaussFluct  -0.239924E+03 kcal/mol
     Cl-        GaussFluct   0.235484E+03 kcal/mol
     Total      GaussFluct   0.133333E+01 kcal/mol


     total cpu time spent up to now is       46.0 secs

     total energy              =     -11.10312975 Ry
     Harris-Foulkes estimate   =     -12.81659227 Ry
     estimated scf accuracy    <       3.49105258 Ry

     iteration #  2     ecut=    25.00 Ry     beta=0.20
     Davidson diagonalization with overlap
     ethr =  1.00E-02,  avg # of iterations =  6.3

     Laue-RISM Calculation

     convergence threshold    = 1.000E-02
     iter. #     1  RMS(g-h-1)= 5.054E+00  nbox=  0
     iter. #    11  RMS(g-h-1)= 4.881E-01  nbox= 10
     iter. #    21  RMS(g-h-1)= 1.510E-01  nbox= 10
     iter. #    31  RMS(g-h-1)= 1.197E-01  nbox= 10
     iter. #    41  RMS(g-h-1)= 1.128E-01  nbox= 10
     iter. #    51  RMS(g-h-1)= 9.102E-02  nbox=  7
     iter. #    61  RMS(g-h-1)= 8.879E-02  nbox= 10
     iter. #    71  RMS(g-h-1)= 8.687E-02  nbox= 10
     iter. #    81  RMS(g-h-1)= 8.850E-02  nbox=  5
     iter. #    91  RMS(g-h-1)= 8.809E-02  nbox= 10
     iter. #   101  RMS(g-h-1)= 1.022E-01  nbox=  9
     iter. #   111  RMS(g-h-1)= 7.237E-02  nbox=  3
     iter. #   121  RMS(g-h-1)= 6.088E-02  nbox= 10
     iter. #   131  RMS(g-h-1)= 5.990E-02  nbox= 10
     iter. #   141  RMS(g-h-1)= 6.440E-02  nbox= 10
     iter. #   151  RMS(g-h-1)= 5.073E-02  nbox=  4
     iter. #   161  RMS(g-h-1)= 5.298E-02  nbox= 10
     iter. #   171  RMS(g-h-1)= 2.895E-02  nbox= 10
     iter. #   181  RMS(g-h-1)= 2.438E-02  nbox= 10
     iter. #   191  RMS(g-h-1)= 2.228E-02  nbox=  5
     iter. #   201  RMS(g-h-1)= 2.101E-02  nbox= 10
     iter. #   211  RMS(g-h-1)= 2.109E-02  nbox=  9
     iter. #   221  RMS(g-h-1)= 2.009E-02  nbox=  3
     iter. #   231  RMS(g-h-1)= 1.949E-02  nbox= 10
     iter. #   241  RMS(g-h-1)= 1.926E-02  nbox=  7
     iter. #   251  RMS(g-h-1)= 1.903E-02  nbox= 10
     iter. #   261  RMS(g-h-1)= 1.867E-02  nbox=  9
     iter. #   271  RMS(g-h-1)= 1.774E-02  nbox=  3
     iter. #   281  RMS(g-h-1)= 1.657E-02  nbox= 10
     iter. #   291  RMS(g-h-1)= 1.574E-02  nbox=  5
     iter. #   301  RMS(g-h-1)= 1.552E-02  nbox= 10
     iter. #   311  RMS(g-h-1)= 1.540E-02  nbox=  9
     iter. #   321  RMS(g-h-1)= 1.429E-02  nbox=  3
     iter. #   331  RMS(g-h-1)= 1.416E-02  nbox= 10
     iter. #   341  RMS(g-h-1)= 1.086E-02  nbox=  5
     iter. #   345  RMS(g-h-1)= 9.888E-03  nbox=  9

     End of Laue-RISM calculation


     convergence has been achieved in   345 iterations


     solvent charge   -0.08337, renormalised to   -0.10000

     Total charge of solvent (in expand-cell)
     H2O          0.022962 e
     Na+          0.096276 e
     Cl-         -0.202633 e
     Total       -0.083395 e

     Chemical potential of solvation (in expand-cell)
     H2O        GaussFluct   0.824636E+01 kcal/mol
     Na+        GaussFluct  -0.404898E+03 kcal/mol
     Cl-        GaussFluct   0.411298E+03 kcal/mol
     Total      GaussFluct   0.146468E+02 kcal/mol


     total cpu time spent up to now is       57.3 secs

     total energy              =     -11.08035315 Ry
     Harris-Foulkes estimate   =     -14.06773042 Ry
     estimated scf accuracy    <      21.38807638 Ry

     iteration #  3     ecut=    25.00 Ry     beta=0.20
     Davidson diagonalization with overlap
     ethr =  1.00E-02,  avg # of iterations =  3.7

     Laue-RISM Calculation

     convergence threshold    = 1.000E-02
     iter. #     1  RMS(g-h-1)= 5.101E-01  nbox=  0
     iter. #    11  RMS(g-h-1)= 1.279E-02  nbox= 10
     iter. #    14  RMS(g-h-1)= 9.794E-03  nbox= 10

     End of Laue-RISM calculation


     convergence has been achieved in    14 iterations


     solvent charge   -0.07884, renormalised to   -0.10000

     Total charge of solvent (in expand-cell)
     H2O          0.019989 e
     Na+          0.096029 e
     Cl-         -0.194888 e
     Total       -0.078870 e

     Chemical potential of solvation (in expand-cell)
     H2O        GaussFluct   0.894463E+01 kcal/mol
     Na+        GaussFluct  -0.402915E+03 kcal/mol
     Cl-        GaussFluct   0.408896E+03 kcal/mol
     Total      GaussFluct   0.149249E+02 kcal/mol


     total cpu time spent up to now is       58.0 secs

     total energy              =     -12.42550367 Ry
     Harris-Foulkes estimate   =     -12.40837093 Ry
     estimated scf accuracy    <       0.33567444 Ry

     iteration #  4     ecut=    25.00 Ry     beta=0.20
     Davidson diagonalization with overlap
     ethr =  3.77E-03,  avg # of iterations =  2.3

     negative rho (up, down):  7.870E-07 0.000E+00

     Laue-RISM Calculation

     convergence threshold    = 1.000E-02
     iter. #     1  RMS(g-h-1)= 4.385E+00  nbox=  0
     iter. #    11  RMS(g-h-1)= 1.150E-01  nbox= 10
     iter. #    21  RMS(g-h-1)= 3.900E-02  nbox= 10
     iter. #    31  RMS(g-h-1)= 3.552E-02  nbox= 10
     iter. #    41  RMS(g-h-1)= 3.360E-02  nbox=  6
     iter. #    51  RMS(g-h-1)= 3.026E-02  nbox=  6
     iter. #    61  RMS(g-h-1)= 1.129E-02  nbox= 10
     iter. #    69  RMS(g-h-1)= 9.490E-03  nbox= 10

     End of Laue-RISM calculation


     convergence has been achieved in    69 iterations


     solvent charge   -0.11783, renormalised to   -0.10000

     Total charge of solvent (in expand-cell)
     H2O         -0.010126 e
     Na+          0.100871 e
     Cl-         -0.208381 e
     Total       -0.117636 e

     Chemical potential of solvation (in expand-cell)
     H2O        GaussFluct   0.766375E+01 kcal/mol
     Na+        GaussFluct  -0.421235E+03 kcal/mol
     Cl-        GaussFluct   0.428312E+03 kcal/mol
     Total      GaussFluct   0.147415E+02 kcal/mol


     total cpu time spent up to now is       60.5 secs

     total energy              =     -12.31187118 Ry
     Harris-Foulkes estimate   =     -12.43388689 Ry
     estimated scf accuracy    <       0.38280866 Ry

     iteration #  5     ecut=    25.00 Ry     beta=0.20
     Davidson diagonalization with overlap
     ethr =  3.77E-03,  avg # of iterations =  7.0

     negative rho (up, down):  7.426E-07 0.000E+00

     Laue-RISM Calculation

     convergence threshold    = 1.000E-02
     iter. #     1  RMS(g-h-1)= 1.079E-01  nbox=  0
     iter. #    11  RMS(g-h-1)= 8.478E-03  nbox= 10

     End of Laue-RISM calculation


     convergence has been achieved in    11 iterations


     solvent charge   -0.11603, renormalised to   -0.10000

     Total charge of solvent (in expand-cell)
     H2O         -0.009598 e
     Na+          0.100676 e
     Cl-         -0.206915 e
     Total       -0.115837 e

     Chemical potential of solvation (in expand-cell)
     H2O        GaussFluct   0.787380E+01 kcal/mol
     Na+        GaussFluct  -0.420086E+03 kcal/mol
     Cl-        GaussFluct   0.427010E+03 kcal/mol
     Total      GaussFluct   0.147978E+02 kcal/mol


     total cpu time spent up to now is       61.1 secs

     total energy              =     -12.42307238 Ry
     Harris-Foulkes estimate   =     -12.42700751 Ry
     estimated scf accuracy    <       0.51525555 Ry

     iteration #  6     ecut=    25.00 Ry     beta=0.20
     Davidson diagonalization with overlap
     ethr =  3.77E-03,  avg # of iterations =  1.0

     negative rho (up, down):  1.020E-06 0.000E+00

     Laue-RISM Calculation

     convergence threshold    = 1.000E-02
     iter. #     1  RMS(g-h-1)= 1.213E+00  nbox=  0
     iter. #    11  RMS(g-h-1)= 3.381E-02  nbox= 10
     iter. #    21  RMS(g-h-1)= 1.279E-02  nbox= 10
     iter. #    26  RMS(g-h-1)= 9.172E-03  nbox= 10

     End of Laue-RISM calculation


     convergence has been achieved in    26 iterations


     solvent charge   -0.11723, renormalised to   -0.10000

     Total charge of solvent (in expand-cell)
     H2O         -0.025711 e
     Na+          0.102806 e
     Cl-         -0.194128 e
     Total       -0.117033 e

     Chemical potential of solvation (in expand-cell)
     H2O        GaussFluct   0.885140E+01 kcal/mol
     Na+        GaussFluct  -0.409872E+03 kcal/mol
     Cl-        GaussFluct   0.415652E+03 kcal/mol
     Total      GaussFluct   0.146311E+02 kcal/mol


     total cpu time spent up to now is       62.1 secs

     total energy              =     -12.39160926 Ry
     Harris-Foulkes estimate   =     -12.42587563 Ry
     estimated scf accuracy    <       0.48698968 Ry

     iteration #  7     ecut=    25.00 Ry     beta=0.20
     Davidson diagonalization with overlap
     ethr =  3.77E-03,  avg # of iterations =  1.0

     negative rho (up, down):  3.590E-05 0.000E+00

     Laue-RISM Calculation

     convergence threshold    = 1.000E-02
     iter. #     1  RMS(g-h-1)= 3.760E+00  nbox=  0
     iter. #    11  RMS(g-h-1)= 7.903E-02  nbox=  9
     iter. #    21  RMS(g-h-1)= 3.106E-02  nbox= 10
     iter. #    31  RMS(g-h-1)= 1.240E-02  nbox= 10
     iter. #    36  RMS(g-h-1)= 9.616E-03  nbox= 10

     End of Laue-RISM calculation


     convergence has been achieved in    36 iterations


     solvent charge   -0.12600, renormalised to   -0.10000

     Total charge of solvent (in expand-cell)
     H2O         -0.026980 e
     Na+          0.104187 e
     Cl-         -0.203094 e
     Total       -0.125886 e

     Chemical potential of solvation (in expand-cell)
     H2O        GaussFluct   0.781208E+01 kcal/mol
     Na+        GaussFluct  -0.397171E+03 kcal/mol
     Cl-        GaussFluct   0.402274E+03 kcal/mol
     Total      GaussFluct   0.129152E+02 kcal/mol


     total cpu time spent up to now is       63.5 secs

     total energy              =     -12.37359405 Ry
     Harris-Foulkes estimate   =     -12.40475262 Ry
     estimated scf accuracy    <       0.16194383 Ry

     iteration #  8     ecut=    25.00 Ry     beta=0.20
     Davidson diagonalization with overlap
     ethr =  1.82E-03,  avg # of iterations =  1.0

     negative rho (up, down):  4.506E-05 0.000E+00

     Laue-RISM Calculation

     convergence threshold    = 1.000E-02
     iter. #     1  RMS(g-h-1)= 1.165E+00  nbox=  0
     iter. #    11  RMS(g-h-1)= 1.663E-02  nbox=  9
     iter. #    21  RMS(g-h-1)= 1.432E-02  nbox= 10
     iter. #    31  RMS(g-h-1)= 1.363E-02  nbox=  4
     iter. #    41  RMS(g-h-1)= 1.274E-02  nbox= 10
     iter. #    51  RMS(g-h-1)= 1.253E-02  nbox=  8
     iter. #    61  RMS(g-h-1)= 1.299E-02  nbox=  2
     iter. #    71  RMS(g-h-1)= 1.163E-02  nbox= 10
     iter. #    81  RMS(g-h-1)= 1.120E-02  nbox=  6
     iter. #    91  RMS(g-h-1)= 1.053E-02  nbox= 10
     iter. #   101  RMS(g-h-1)= 1.050E-02  nbox= 10
     iter. #   111  RMS(g-h-1)= 1.049E-02  nbox=  4
     iter. #   121  RMS(g-h-1)= 1.051E-02  nbox= 10
     iter. #   123  RMS(g-h-1)= 9.956E-03  nbox= 10

     End of Laue-RISM calculation


     convergence has been achieved in   123 iterations


     solvent charge   -0.13279, renormalised to   -0.10000

     Total charge of solvent (in expand-cell)
     H2O         -0.029163 e
     Na+          0.105243 e
     Cl-         -0.208761 e
     Total       -0.132681 e

     Chemical potential of solvation (in expand-cell)
     H2O        GaussFluct   0.705131E+01 kcal/mol
     Na+        GaussFluct  -0.395413E+03 kcal/mol
     Cl-        GaussFluct   0.400269E+03 kcal/mol
     Total      GaussFluct   0.119076E+02 kcal/mol


     total cpu time spent up to now is       67.5 secs

     total energy              =     -12.38181807 Ry
     Harris-Foulkes estimate   =     -12.39122045 Ry
     estimated scf accuracy    <       0.03705460 Ry

     iteration #  9     ecut=    25.00 Ry     beta=0.20
     Davidson diagonalization with overlap
     ethr =  4.16E-04,  avg # of iterations =  5.7

     negative rho (up, down):  1.933E-05 0.000E+00

     Laue-RISM Calculation

     convergence threshold    = 3.511E-03
     iter. #     1  RMS(g-h-1)= 7.975E-01  nbox=  0
     iter. #    11  RMS(g-h-1)= 1.143E-02  nbox=  9
     iter. #    21  RMS(g-h-1)= 7.500E-03  nbox= 10
     iter. #    31  RMS(g-h-1)= 7.342E-03  nbox=  3
     iter. #    41  RMS(g-h-1)= 5.791E-03  nbox= 10
     iter. #    51  RMS(g-h-1)= 5.501E-03  nbox= 10
     iter. #    61  RMS(g-h-1)= 5.341E-03  nbox=  6
     iter. #    71  RMS(g-h-1)= 5.315E-03  nbox= 10
     iter. #    81  RMS(g-h-1)= 5.319E-03  nbox= 10
     iter. #    91  RMS(g-h-1)= 5.294E-03  nbox=  4
     iter. #   101  RMS(g-h-1)= 4.625E-03  nbox= 10
     iter. #   111  RMS(g-h-1)= 4.308E-03  nbox=  8
     iter. #   121  RMS(g-h-1)= 4.228E-03  nbox=  2
     iter. #   131  RMS(g-h-1)= 4.230E-03  nbox= 10
     iter. #   141  RMS(g-h-1)= 4.199E-03  nbox=  6
     iter. #   150  RMS(g-h-1)= 3.329E-03  nbox= 10

     End of Laue-RISM calculation


     convergence has been achieved in   150 iterations


     solvent charge   -0.10963, renormalised to   -0.10000

     Total charge of solvent (in expand-cell)
     H2O         -0.012450 e
     Na+          0.102504 e
     Cl-         -0.199650 e
     Total       -0.109596 e

     Chemical potential of solvation (in expand-cell)
     H2O        GaussFluct   0.863773E+01 kcal/mol
     Na+        GaussFluct  -0.397564E+03 kcal/mol
     Cl-        GaussFluct   0.402659E+03 kcal/mol
     Total      GaussFluct   0.137331E+02 kcal/mol


     total cpu time spent up to now is       72.7 secs

     total energy              =     -12.38174266 Ry
     Harris-Foulkes estimate   =     -12.37973319 Ry
     estimated scf accuracy    <       0.01442227 Ry

     iteration # 10     ecut=    25.00 Ry     beta=0.20
     Davidson diagonalization with overlap
     ethr =  1.62E-04,  avg # of iterations =  7.7

     negative rho (up, down):  1.100E-05 0.000E+00

     Laue-RISM Calculation

     convergence threshold    = 1.769E-03
     iter. #     1  RMS(g-h-1)= 4.399E-01  nbox=  0
     iter. #    11  RMS(g-h-1)= 1.121E-02  nbox= 10
     iter. #    21  RMS(g-h-1)= 7.047E-03  nbox= 10
     iter. #    31  RMS(g-h-1)= 7.047E-03  nbox=  4
     iter. #    41  RMS(g-h-1)= 5.938E-03  nbox= 10
     iter. #    51  RMS(g-h-1)= 4.008E-03  nbox= 10
     iter. #    61  RMS(g-h-1)= 3.949E-03  nbox= 10
     iter. #    71  RMS(g-h-1)= 3.933E-03  nbox=  9
     iter. #    81  RMS(g-h-1)= 3.654E-03  nbox=  3
     iter. #    91  RMS(g-h-1)= 3.497E-03  nbox= 10
     iter. #   101  RMS(g-h-1)= 3.570E-03  nbox=  7
     iter. #   111  RMS(g-h-1)= 3.531E-03  nbox= 10
     iter. #   121  RMS(g-h-1)= 3.527E-03  nbox= 10
     iter. #   131  RMS(g-h-1)= 3.503E-03  nbox=  5
     iter. #   141  RMS(g-h-1)= 3.375E-03  nbox= 10
     iter. #   151  RMS(g-h-1)= 3.360E-03  nbox=  9
     iter. #   161  RMS(g-h-1)= 3.362E-03  nbox=  3
     iter. #   171  RMS(g-h-1)= 3.295E-03  nbox= 10
     iter. #   181  RMS(g-h-1)= 3.396E-03  nbox=  7
     iter. #   191  RMS(g-h-1)= 3.388E-03  nbox= 10
     iter. #   201  RMS(g-h-1)= 3.419E-03  nbox= 10
     iter. #   211  RMS(g-h-1)= 3.444E-03  nbox=  5
     iter. #   221  RMS(g-h-1)= 3.420E-03  nbox= 10
     iter. #   231  RMS(g-h-1)= 3.352E-03  nbox=  8
     iter. #   241  RMS(g-h-1)= 3.202E-03  nbox=  2
     iter. #   251  RMS(g-h-1)= 3.418E-03  nbox= 10
     iter. #   261  RMS(g-h-1)= 3.297E-03  nbox=  6
     iter. #   271  RMS(g-h-1)= 3.268E-03  nbox= 10
     iter. #   281  RMS(g-h-1)= 3.255E-03  nbox= 10
     iter. #   291  RMS(g-h-1)= 2.739E-03  nbox= 10
     iter. #   301  RMS(g-h-1)= 1.877E-03  nbox= 10
     iter. #   311  RMS(g-h-1)= 1.777E-03  nbox=  2
     iter. #   313  RMS(g-h-1)= 1.743E-03  nbox=  4

     End of Laue-RISM calculation


     convergence has been achieved in   313 iterations


     solvent charge   -0.10017, renormalised to   -0.10000

     Total charge of solvent (in expand-cell)
     H2O         -0.001809 e
     Na+          0.101303 e
     Cl-         -0.199698 e
     Total       -0.100204 e

     Chemical potential of solvation (in expand-cell)
     H2O        GaussFluct   0.889566E+01 kcal/mol
     Na+        GaussFluct  -0.397600E+03 kcal/mol
     Cl-        GaussFluct   0.402842E+03 kcal/mol
     Total      GaussFluct   0.141379E+02 kcal/mol


     total cpu time spent up to now is       82.8 secs

     total energy              =     -12.38152824 Ry
     Harris-Foulkes estimate   =     -12.38314963 Ry
     estimated scf accuracy    <       0.00862734 Ry

     iteration # 11     ecut=    25.00 Ry     beta=0.20
     Davidson diagonalization with overlap
     ethr =  9.69E-05,  avg # of iterations =  2.0

     negative rho (up, down):  1.361E-05 0.000E+00

     Laue-RISM Calculation

     convergence threshold    = 1.000E-04
     iter. #     1  RMS(g-h-1)= 2.990E-01  nbox=  0
     iter. #    11  RMS(g-h-1)= 6.347E-03  nbox=  9
     iter. #    21  RMS(g-h-1)= 1.468E-03  nbox= 10
     iter. #    31  RMS(g-h-1)= 1.040E-03  nbox= 10
     iter. #    41  RMS(g-h-1)= 1.040E-03  nbox= 10
     iter. #    51  RMS(g-h-1)= 1.001E-03  nbox=  9
     iter. #    61  RMS(g-h-1)= 8.765E-04  nbox=  3
     iter. #    71  RMS(g-h-1)= 8.028E-04  nbox= 10
     iter. #    81  RMS(g-h-1)= 7.996E-04  nbox=  7
     iter. #    91  RMS(g-h-1)= 7.543E-04  nbox= 10
     iter. #   101  RMS(g-h-1)= 7.425E-04  nbox= 10
     iter. #   111  RMS(g-h-1)= 6.793E-04  nbox=  5
     iter. #   121  RMS(g-h-1)= 6.626E-04  nbox= 10
     iter. #   131  RMS(g-h-1)= 3.774E-04  nbox=  9
     iter. #   141  RMS(g-h-1)= 3.598E-04  nbox= 10
     iter. #   151  RMS(g-h-1)= 3.595E-04  nbox=  7
     iter. #   161  RMS(g-h-1)= 3.582E-04  nbox= 10
     iter. #   171  RMS(g-h-1)= 3.582E-04  nbox= 10
     iter. #   181  RMS(g-h-1)= 3.567E-04  nbox=  5
     iter. #   191  RMS(g-h-1)= 3.430E-04  nbox= 10
     iter. #   201  RMS(g-h-1)= 3.359E-04  nbox=  9
     iter. #   211  RMS(g-h-1)= 2.909E-04  nbox=  3
     iter. #   221  RMS(g-h-1)= 2.864E-04  nbox= 10
     iter. #   231  RMS(g-h-1)= 2.867E-04  nbox=  7
     iter. #   241  RMS(g-h-1)= 2.847E-04  nbox= 10
     iter. #   251  RMS(g-h-1)= 2.819E-04  nbox= 10
     iter. #   261  RMS(g-h-1)= 2.383E-04  nbox= 10
     iter. #   271  RMS(g-h-1)= 2.365E-04  nbox= 10
     iter. #   281  RMS(g-h-1)= 2.316E-04  nbox=  9
     iter. #   291  RMS(g-h-1)= 2.172E-04  nbox=  3
     iter. #   301  RMS(g-h-1)= 2.038E-04  nbox= 10
     iter. #   311  RMS(g-h-1)= 1.697E-04  nbox=  7
     iter. #   321  RMS(g-h-1)= 1.330E-04  nbox= 10
     iter. #   331  RMS(g-h-1)= 1.341E-04  nbox=  2
     iter. #   341  RMS(g-h-1)= 1.292E-04  nbox= 10
     iter. #   351  RMS(g-h-1)= 1.285E-04  nbox=  6
     iter. #   359  RMS(g-h-1)= 9.487E-05  nbox= 10

     End of Laue-RISM calculation


     convergence has been achieved in   359 iterations


     solvent charge   -0.09997, renormalised to   -0.10000

     Total charge of solvent (in expand-cell)
     H2O          0.000270 e
     Na+          0.101227 e
     Cl-         -0.201505 e
     Total       -0.100008 e

     Chemical potential of solvation (in expand-cell)
     H2O        GaussFluct   0.884833E+01 kcal/mol
     Na+        GaussFluct  -0.395078E+03 kcal/mol
     Cl-        GaussFluct   0.400194E+03 kcal/mol
     Total      GaussFluct   0.139645E+02 kcal/mol


     total cpu time spent up to now is       93.8 secs

     total energy              =     -12.38215694 Ry
     Harris-Foulkes estimate   =     -12.38315685 Ry
     estimated scf accuracy    <       0.00028399 Ry

     iteration # 12     ecut=    25.00 Ry     beta=0.20
     Davidson diagonalization with overlap
     c_bands:  1 eigenvalues not converged
     ethr =  3.19E-06,  avg # of iterations = 13.0

     negative rho (up, down):  1.463E-07 0.000E+00

     Laue-RISM Calculation

     convergence threshold    = 5.659E-04
     iter. #     1  RMS(g-h-1)= 5.977E-01  nbox=  0
     iter. #    11  RMS(g-h-1)= 9.441E-03  nbox=  9
     iter. #    21  RMS(g-h-1)= 1.942E-03  nbox= 10
     iter. #    31  RMS(g-h-1)= 1.098E-03  nbox= 10
     iter. #    41  RMS(g-h-1)= 1.027E-03  nbox= 10
     iter. #    51  RMS(g-h-1)= 9.960E-04  nbox= 10
     iter. #    61  RMS(g-h-1)= 9.810E-04  nbox=  4
     iter. #    71  RMS(g-h-1)= 6.054E-04  nbox= 10
     iter. #    81  RMS(g-h-1)= 5.729E-04  nbox= 10
     iter. #    91  RMS(g-h-1)= 5.728E-04  nbox=  5
     iter. #   101  RMS(g-h-1)= 5.709E-04  nbox= 10
     iter. #   111  RMS(g-h-1)= 5.687E-04  nbox=  9
     iter. #   121  RMS(g-h-1)= 5.681E-04  nbox=  3
     iter. #   123  RMS(g-h-1)= 5.652E-04  nbox=  5

     End of Laue-RISM calculation


     convergence has been achieved in   123 iterations


     solvent charge   -0.09784, renormalised to   -0.10000

     Total charge of solvent (in expand-cell)
     H2O          0.002816 e
     Na+          0.100920 e
     Cl-         -0.201613 e
     Total       -0.097878 e

     Chemical potential of solvation (in expand-cell)
     H2O        GaussFluct   0.888182E+01 kcal/mol
     Na+        GaussFluct  -0.395305E+03 kcal/mol
     Cl-        GaussFluct   0.400468E+03 kcal/mol
     Total      GaussFluct   0.140441E+02 kcal/mol


     total cpu time spent up to now is       98.0 secs

     total energy              =     -12.38222357 Ry
     Harris-Foulkes estimate   =     -12.38242958 Ry
     estimated scf accuracy    <       0.00366923 Ry

     iteration # 13     ecut=    25.00 Ry     beta=0.20
     Davidson diagonalization with overlap
     ethr =  3.19E-06,  avg # of iterations =  4.3

     Laue-RISM Calculation

     convergence threshold    = 1.000E-04
     iter. #     1  RMS(g-h-1)= 1.480E-01  nbox=  0
     iter. #    11  RMS(g-h-1)= 1.340E-03  nbox=  9
     iter. #    21  RMS(g-h-1)= 1.005E-03  nbox= 10
     iter. #    31  RMS(g-h-1)= 6.954E-04  nbox= 10
     iter. #    41  RMS(g-h-1)= 4.588E-04  nbox= 10
     iter. #    51  RMS(g-h-1)= 3.591E-04  nbox= 10
     iter. #    61  RMS(g-h-1)= 3.473E-04  nbox=  3
     iter. #    71  RMS(g-h-1)= 3.456E-04  nbox= 10
     iter. #    81  RMS(g-h-1)= 3.434E-04  nbox=  7
     iter. #    91  RMS(g-h-1)= 3.424E-04  nbox= 10
     iter. #   101  RMS(g-h-1)= 3.411E-04  nbox= 10
     iter. #   111  RMS(g-h-1)= 3.401E-04  nbox=  5
     iter. #   121  RMS(g-h-1)= 3.399E-04  nbox= 10
     iter. #   131  RMS(g-h-1)= 3.407E-04  nbox=  9
     iter. #   141  RMS(g-h-1)= 3.440E-04  nbox=  3
     iter. #   151  RMS(g-h-1)= 3.246E-04  nbox= 10
     iter. #   161  RMS(g-h-1)= 3.234E-04  nbox=  7
     iter. #   171  RMS(g-h-1)= 2.353E-04  nbox= 10
     iter. #   181  RMS(g-h-1)= 1.413E-04  nbox= 10
     iter. #   191  RMS(g-h-1)= 1.307E-04  nbox= 10
     iter. #   200  RMS(g-h-1)= 9.501E-05  nbox=  8

     End of Laue-RISM calculation


     convergence has been achieved in   200 iterations


     solvent charge   -0.09995, renormalised to   -0.10000

     Total charge of solvent (in expand-cell)
     H2O          0.000292 e
     Na+          0.101307 e
     Cl-         -0.201588 e
     Total       -0.099989 e

     Chemical potential of solvation (in expand-cell)
     H2O        GaussFluct   0.885534E+01 kcal/mol
     Na+        GaussFluct  -0.396416E+03 kcal/mol
     Cl-        GaussFluct   0.401617E+03 kcal/mol
     Total      GaussFluct   0.140558E+02 kcal/mol


     total cpu time spent up to now is      105.0 secs

     total energy              =     -12.38267778 Ry
     Harris-Foulkes estimate   =     -12.38232422 Ry
     estimated scf accuracy    <       0.00077775 Ry

     iteration # 14     ecut=    25.00 Ry     beta=0.20
     Davidson diagonalization with overlap
     ethr =  3.19E-06,  avg # of iterations =  1.0

     negative rho (up, down):  3.108E-06 0.000E+00

     Laue-RISM Calculation

     convergence threshold    = 1.000E-04
     iter. #     1  RMS(g-h-1)= 1.716E-01  nbox=  0
     iter. #    11  RMS(g-h-1)= 2.335E-03  nbox=  9
     iter. #    21  RMS(g-h-1)= 8.846E-04  nbox= 10
     iter. #    31  RMS(g-h-1)= 4.276E-04  nbox= 10
     iter. #    41  RMS(g-h-1)= 3.072E-04  nbox= 10
     iter. #    51  RMS(g-h-1)= 1.827E-04  nbox= 10
     iter. #    56  RMS(g-h-1)= 9.821E-05  nbox= 10

     End of Laue-RISM calculation


     convergence has been achieved in    56 iterations


     solvent charge   -0.10035, renormalised to   -0.10000

     Total charge of solvent (in expand-cell)
     H2O         -0.000269 e
     Na+          0.101408 e
     Cl-         -0.201524 e
     Total       -0.100385 e

     Chemical potential of solvation (in expand-cell)
     H2O        GaussFluct   0.885784E+01 kcal/mol
     Na+        GaussFluct  -0.396105E+03 kcal/mol
     Cl-        GaussFluct   0.401273E+03 kcal/mol
     Total      GaussFluct   0.140263E+02 kcal/mol


     total cpu time spent up to now is      107.0 secs

     total energy              =     -12.38271335 Ry
     Harris-Foulkes estimate   =     -12.38284099 Ry
     estimated scf accuracy    <       0.00014458 Ry

     iteration # 15     ecut=    25.00 Ry     beta=0.20
     Davidson diagonalization with overlap
     ethr =  1.62E-06,  avg # of iterations =  1.0

     negative rho (up, down):  4.586E-07 0.000E+00

     Laue-RISM Calculation

     convergence threshold    = 1.000E-04
     iter. #     1  RMS(g-h-1)= 1.344E-01  nbox=  0
     iter. #    11  RMS(g-h-1)= 2.239E-03  nbox=  9
     iter. #    21  RMS(g-h-1)= 4.983E-04  nbox= 10
     iter. #    31  RMS(g-h-1)= 2.899E-04  nbox= 10
     iter. #    41  RMS(g-h-1)= 2.001E-04  nbox= 10
     iter. #    49  RMS(g-h-1)= 9.163E-05  nbox= 10

     End of Laue-RISM calculation


     convergence has been achieved in    49 iterations


     solvent charge   -0.09992, renormalised to   -0.10000

     Total charge of solvent (in expand-cell)
     H2O          0.000200 e
     Na+          0.101349 e
     Cl-         -0.201504 e
     Total       -0.099956 e

     Chemical potential of solvation (in expand-cell)
     H2O        GaussFluct   0.887281E+01 kcal/mol
     Na+        GaussFluct  -0.396051E+03 kcal/mol
     Cl-        GaussFluct   0.401222E+03 kcal/mol
     Total      GaussFluct   0.140441E+02 kcal/mol


     total cpu time spent up to now is      108.7 secs

     total energy              =     -12.38263256 Ry
     Harris-Foulkes estimate   =     -12.38267169 Ry
     estimated scf accuracy    <       0.00010389 Ry

     iteration # 16     ecut=    25.00 Ry     beta=0.20
     Davidson diagonalization with overlap
     ethr =  1.17E-06,  avg # of iterations =  1.0

     negative rho (up, down):  3.150E-07 0.000E+00

     Laue-RISM Calculation

     convergence threshold    = 1.000E-04
     iter. #     1  RMS(g-h-1)= 3.519E-02  nbox=  0
     iter. #    11  RMS(g-h-1)= 6.714E-04  nbox=  9
     iter. #    21  RMS(g-h-1)= 1.428E-04  nbox= 10
     iter. #    31  RMS(g-h-1)= 1.049E-04  nbox= 10
     iter. #    41  RMS(g-h-1)= 1.059E-04  nbox=  4
     iter. #    51  RMS(g-h-1)= 1.027E-04  nbox= 10
     iter. #    60  RMS(g-h-1)= 9.952E-05  nbox=  7

     End of Laue-RISM calculation


     convergence has been achieved in    60 iterations


     solvent charge   -0.09968, renormalised to   -0.10000

     Total charge of solvent (in expand-cell)
     H2O          0.000499 e
     Na+          0.101315 e
     Cl-         -0.201530 e
     Total       -0.099716 e

     Chemical potential of solvation (in expand-cell)
     H2O        GaussFluct   0.887233E+01 kcal/mol
     Na+        GaussFluct  -0.396189E+03 kcal/mol
     Cl-        GaussFluct   0.401373E+03 kcal/mol
     Total      GaussFluct   0.140559E+02 kcal/mol


     total cpu time spent up to now is      110.8 secs

     total energy              =     -12.38265806 Ry
     Harris-Foulkes estimate   =     -12.38259976 Ry
     estimated scf accuracy    <       0.00004227 Ry

     iteration # 17     ecut=    25.00 Ry     beta=0.20
     Davidson diagonalization with overlap
     ethr =  4.75E-07,  avg # of iterations =  1.0

     negative rho (up, down):  7.422E-07 0.000E+00

     Laue-RISM Calculation

     convergence threshold    = 1.000E-04
     iter. #     1  RMS(g-h-1)= 1.749E-01  nbox=  0
     iter. #    11  RMS(g-h-1)= 2.590E-03  nbox=  9
     iter. #    21  RMS(g-h-1)= 7.504E-04  nbox= 10
     iter. #    31  RMS(g-h-1)= 4.905E-04  nbox= 10
     iter. #    41  RMS(g-h-1)= 4.655E-04  nbox= 10
     iter. #    51  RMS(g-h-1)= 4.488E-04  nbox=  9
     iter. #    61  RMS(g-h-1)= 2.888E-04  nbox= 10
     iter. #    71  RMS(g-h-1)= 2.659E-04  nbox= 10
     iter. #    81  RMS(g-h-1)= 2.662E-04  nbox=  6
     iter. #    91  RMS(g-h-1)= 2.647E-04  nbox= 10
     iter. #   101  RMS(g-h-1)= 2.643E-04  nbox= 10
     iter. #   111  RMS(g-h-1)= 2.636E-04  nbox=  4
     iter. #   121  RMS(g-h-1)= 2.602E-04  nbox= 10
     iter. #   131  RMS(g-h-1)= 2.600E-04  nbox=  8
     iter. #   141  RMS(g-h-1)= 2.574E-04  nbox=  2
     iter. #   151  RMS(g-h-1)= 2.574E-04  nbox= 10
     iter. #   161  RMS(g-h-1)= 2.525E-04  nbox=  6
     iter. #   171  RMS(g-h-1)= 2.452E-04  nbox= 10
     iter. #   181  RMS(g-h-1)= 2.451E-04  nbox= 10
     iter. #   191  RMS(g-h-1)= 2.418E-04  nbox=  4
     iter. #   201  RMS(g-h-1)= 2.420E-04  nbox= 10
     iter. #   211  RMS(g-h-1)= 2.414E-04  nbox=  8
     iter. #   221  RMS(g-h-1)= 2.361E-04  nbox=  2
     iter. #   231  RMS(g-h-1)= 1.811E-04  nbox= 10
     iter. #   241  RMS(g-h-1)= 1.216E-04  nbox= 10
     iter. #   244  RMS(g-h-1)= 9.987E-05  nbox= 10

     End of Laue-RISM calculation


     convergence has been achieved in   244 iterations


     solvent charge   -0.10009, renormalised to   -0.10000

     Total charge of solvent (in expand-cell)
     H2O          0.000098 e
     Na+          0.101389 e
     Cl-         -0.201611 e
     Total       -0.100125 e

     Chemical potential of solvation (in expand-cell)
     H2O        GaussFluct   0.886157E+01 kcal/mol
     Na+        GaussFluct  -0.396234E+03 kcal/mol
     Cl-        GaussFluct   0.401416E+03 kcal/mol
     Total      GaussFluct   0.140433E+02 kcal/mol


     total cpu time spent up to now is      118.8 secs

     total energy              =     -12.38270276 Ry
     Harris-Foulkes estimate   =     -12.38269954 Ry
     estimated scf accuracy    <       0.00001991 Ry

     iteration # 18     ecut=    25.00 Ry     beta=0.20
     Davidson diagonalization with overlap
     ethr =  2.24E-07,  avg # of iterations =  3.7

     negative rho (up, down):  1.335E-08 0.000E+00

     Laue-RISM Calculation

     convergence threshold    = 1.000E-04
     iter. #     1  RMS(g-h-1)= 1.242E-01  nbox=  0
     iter. #    11  RMS(g-h-1)= 1.832E-03  nbox=  9
     iter. #    21  RMS(g-h-1)= 5.664E-04  nbox= 10
     iter. #    31  RMS(g-h-1)= 3.648E-04  nbox= 10
     iter. #    41  RMS(g-h-1)= 2.733E-04  nbox= 10
     iter. #    51  RMS(g-h-1)= 2.544E-04  nbox= 10
     iter. #    61  RMS(g-h-1)= 2.239E-04  nbox=  8
     iter. #    71  RMS(g-h-1)= 1.940E-04  nbox= 10
     iter. #    81  RMS(g-h-1)= 1.905E-04  nbox=  7
     iter. #    91  RMS(g-h-1)= 1.779E-04  nbox= 10
     iter. #   101  RMS(g-h-1)= 1.424E-04  nbox= 10
     iter. #   111  RMS(g-h-1)= 1.269E-04  nbox= 10
     iter. #   121  RMS(g-h-1)= 1.263E-04  nbox=  7
     iter. #   131  RMS(g-h-1)= 1.231E-04  nbox= 10
     iter. #   141  RMS(g-h-1)= 1.223E-04  nbox= 10
     iter. #   151  RMS(g-h-1)= 1.224E-04  nbox=  5
     iter. #   161  RMS(g-h-1)= 1.187E-04  nbox= 10
     iter. #   171  RMS(g-h-1)= 1.161E-04  nbox=  9
     iter. #   181  RMS(g-h-1)= 1.135E-04  nbox=  3
     iter. #   191  RMS(g-h-1)= 1.087E-04  nbox= 10
     iter. #   196  RMS(g-h-1)= 9.587E-05  nbox= 10

     End of Laue-RISM calculation


     convergence has been achieved in   196 iterations


     solvent charge   -0.10046, renormalised to   -0.10000

     Total charge of solvent (in expand-cell)
     H2O         -0.000386 e
     Na+          0.101427 e
     Cl-         -0.201544 e
     Total       -0.100502 e

     Chemical potential of solvation (in expand-cell)
     H2O        GaussFluct   0.885743E+01 kcal/mol
     Na+        GaussFluct  -0.396246E+03 kcal/mol
     Cl-        GaussFluct   0.401423E+03 kcal/mol
     Total      GaussFluct   0.140344E+02 kcal/mol


     total cpu time spent up to now is      125.2 secs

     total energy              =     -12.38272321 Ry
     Harris-Foulkes estimate   =     -12.38274574 Ry
     estimated scf accuracy    <       0.00002463 Ry

     iteration # 19     ecut=    25.00 Ry     beta=0.20
     Davidson diagonalization with overlap
     ethr =  2.24E-07,  avg # of iterations =  2.7

     negative rho (up, down):  1.261E-07 0.000E+00

     Laue-RISM Calculation

     convergence threshold    = 1.000E-04
     iter. #     1  RMS(g-h-1)= 1.303E-02  nbox=  0
     iter. #    11  RMS(g-h-1)= 2.056E-04  nbox=  9
     iter. #    21  RMS(g-h-1)= 1.003E-04  nbox= 10
     iter. #    22  RMS(g-h-1)= 9.932E-05  nbox= 10

     End of Laue-RISM calculation


     convergence has been achieved in    22 iterations


     solvent charge   -0.10039, renormalised to   -0.10000

     Total charge of solvent (in expand-cell)
     H2O         -0.000346 e
     Na+          0.101426 e
     Cl-         -0.201509 e
     Total       -0.100429 e

     Chemical potential of solvation (in expand-cell)
     H2O        GaussFluct   0.886683E+01 kcal/mol
     Na+        GaussFluct  -0.396224E+03 kcal/mol
     Cl-        GaussFluct   0.401399E+03 kcal/mol
     Total      GaussFluct   0.140417E+02 kcal/mol


     total cpu time spent up to now is      126.2 secs

     total energy              =     -12.38270010 Ry
     Harris-Foulkes estimate   =     -12.38270646 Ry
     estimated scf accuracy    <       0.00000421 Ry

     iteration # 20     ecut=    25.00 Ry     beta=0.20
     Davidson diagonalization with overlap
     ethr =  4.73E-08,  avg # of iterations =  2.3

     Laue-RISM Calculation

     convergence threshold    = 1.000E-04
     iter. #     1  RMS(g-h-1)= 3.013E-02  nbox=  0
     iter. #    11  RMS(g-h-1)= 6.902E-04  nbox=  9
     iter. #    21  RMS(g-h-1)= 1.014E-04  nbox= 10
     iter. #    22  RMS(g-h-1)= 8.516E-05  nbox= 10

     End of Laue-RISM calculation


     convergence has been achieved in    22 iterations


     solvent charge   -0.10022, renormalised to   -0.10000

     Total charge of solvent (in expand-cell)
     H2O         -0.000073 e
     Na+          0.101392 e
     Cl-         -0.201574 e
     Total       -0.100256 e

     Chemical potential of solvation (in expand-cell)
     H2O        GaussFluct   0.886620E+01 kcal/mol
     Na+        GaussFluct  -0.396339E+03 kcal/mol
     Cl-        GaussFluct   0.401527E+03 kcal/mol
     Total      GaussFluct   0.140540E+02 kcal/mol


     total cpu time spent up to now is      127.1 secs

     End of self-consistent calculation

          k = 0.0000 0.0000 0.0000 (  2491 PWs)   bands (ev):

   -16.7438 -14.5475 -11.4533  -8.3864  -4.3551  -2.3678  -1.4839  -0.4387

          k = 0.0000-0.5774 0.0000 (  2408 PWs)   bands (ev):

   -10.9496 -10.8461  -9.0839  -8.3996  -5.7372  -5.4816  -2.8187  -2.6674

          k = 0.5000-0.2887 0.0000 (  2408 PWs)   bands (ev):

   -10.9511 -10.8448  -9.0846  -8.3983  -5.7362  -5.4818  -2.8238  -2.6637

     the Fermi energy is    -5.7141 ev

!    total energy              =     -12.38271610 Ry
     Harris-Foulkes estimate   =     -12.38266168 Ry
     estimated scf accuracy    <       0.00000078 Ry

     The total energy is the sum of the following terms:

     one-electron contribution =     163.80880690 Ry
     hartree contribution      =     -79.87984819 Ry
     xc contribution           =      -4.74179571 Ry
     ewald contribution        =     -91.61035544 Ry
     solvation energy (RISM)   =       0.04482296 Ry
     smearing contrib. (-TS)   =      -0.00434663 Ry

     convergence has been achieved in  20 iterations

     Forces acting on atoms (cartesian axes, Ry/au):

     atom    1 type  1   force =     0.00000000   -0.00005632   -0.00486806
     atom    2 type  1   force =     0.00000000    0.00030452   -0.00339441
     atom    3 type  1   force =     0.00000000   -0.00024820    0.00212392

     Total force =     0.004004     Total SCF correction =     0.000806
     SCF correction compared to forces is large: reduce conv_thr to get better values

     BFGS Geometry Optimization

     number of scf cycles    =   1
     number of bfgs steps    =   0

     energy   new            =     -12.3827160990 Ry

     new trust radius        =       0.0033944059 bohr
     new conv_thr            =       0.0000010000 Ry


ATOMIC_POSITIONS (angstrom)
Al       0.000000000   0.000000000  -2.000000000    0   0   0
Al       0.000000000   1.650000000   0.088203758    0   0   1
Al       1.430000000   0.830000000   2.171123928    0   0   1



     Writing output data file Al-NaCl_aq.save
     NEW-OLD atomic charge density approx. for the potential

     negative rho (up, down):  2.738E-08 0.000E+00

     Laue-RISM Calculation

     convergence threshold    = 1.000E-02
     iter. #     1  RMS(g-h-1)= 5.313E-01  nbox=  0
     iter. #     8  RMS(g-h-1)= 8.334E-03  nbox=  6

     End of Laue-RISM calculation


     convergence has been achieved in     8 iterations


     solvent charge   -0.10014, renormalised to   -0.10000

     Total charge of solvent (in expand-cell)
     H2O          0.000160 e
     Na+          0.101159 e
     Cl-         -0.201493 e
     Total       -0.100174 e

     Chemical potential of solvation (in expand-cell)
     H2O        GaussFluct   0.862946E+01 kcal/mol
     Na+        GaussFluct  -0.396379E+03 kcal/mol
     Cl-        GaussFluct   0.401482E+03 kcal/mol
     Total      GaussFluct   0.137327E+02 kcal/mol


     total cpu time spent up to now is      129.8 secs

     per-process dynamical memory:    20.7 Mb

     Self-consistent Calculation

     iteration #  1     ecut=    25.00 Ry     beta=0.20
     Davidson diagonalization with overlap
     ethr =  1.00E-06,  avg # of iterations =  2.0

     negative rho (up, down):  1.840E-08 0.000E+00

     Laue-RISM Calculation

     convergence threshold    = 1.000E-04
     iter. #     1  RMS(g-h-1)= 2.446E-02  nbox=  0
     iter. #    11  RMS(g-h-1)= 3.425E-03  nbox= 10
     iter. #    21  RMS(g-h-1)= 1.167E-03  nbox= 10
     iter. #    31  RMS(g-h-1)= 6.614E-04  nbox= 10
     iter. #    41  RMS(g-h-1)= 1.824E-04  nbox= 10
     iter. #    51  RMS(g-h-1)= 1.531E-04  nbox= 10
     iter. #    61  RMS(g-h-1)= 1.523E-04  nbox=  4
     iter. #    71  RMS(g-h-1)= 1.493E-04  nbox= 10
     iter. #    81  RMS(g-h-1)= 1.489E-04  nbox=  8
     iter. #    91  RMS(g-h-1)= 1.457E-04  nbox=  2
     iter. #   101  RMS(g-h-1)= 1.427E-04  nbox= 10
     iter. #   111  RMS(g-h-1)= 1.393E-04  nbox=  6
     iter. #   121  RMS(g-h-1)= 1.362E-04  nbox= 10
     iter. #   131  RMS(g-h-1)= 1.369E-04  nbox= 10
     iter. #   141  RMS(g-h-1)= 1.375E-04  nbox=  4
     iter. #   151  RMS(g-h-1)= 1.358E-04  nbox= 10
     iter. #   161  RMS(g-h-1)= 1.352E-04  nbox=  8
     iter. #   171  RMS(g-h-1)= 1.231E-04  nbox=  2
     iter. #   181  RMS(g-h-1)= 1.004E-04  nbox= 10
     iter. #   182  RMS(g-h-1)= 8.829E-05  nbox= 10

     End of Laue-RISM calculation


     convergence has been achieved in   182 iterations


     solvent charge   -0.10042, renormalised to   -0.10000

     Total charge of solvent (in expand-cell)
     H2O         -0.000323 e
     Na+          0.101407 e
     Cl-         -0.201541 e
     Total       -0.100458 e

     Chemical potential of solvation (in expand-cell)
     H2O        GaussFluct   0.886462E+01 kcal/mol
     Na+        GaussFluct  -0.395543E+03 kcal/mol
     Cl-        GaussFluct   0.400676E+03 kcal/mol
     Total      GaussFluct   0.139982E+02 kcal/mol


     total cpu time spent up to now is      135.9 secs

     total energy              =     -12.38257543 Ry
     Harris-Foulkes estimate   =     -12.38293413 Ry
     estimated scf accuracy    <       0.00003560 Ry

     iteration #  2     ecut=    25.00 Ry     beta=0.20
     Davidson diagonalization with overlap
     ethr =  4.00E-07,  avg # of iterations =  1.0

     negative rho (up, down):  1.330E-08 0.000E+00

     Laue-RISM Calculation

     convergence threshold    = 1.000E-04
     iter. #     1  RMS(g-h-1)= 2.079E-02  nbox=  0
     iter. #    11  RMS(g-h-1)= 1.004E-03  nbox= 10
     iter. #    21  RMS(g-h-1)= 4.930E-04  nbox= 10
     iter. #    31  RMS(g-h-1)= 4.751E-04  nbox= 10
     iter. #    41  RMS(g-h-1)= 4.533E-04  nbox= 10
     iter. #    51  RMS(g-h-1)= 4.424E-04  nbox=  5
     iter. #    61  RMS(g-h-1)= 4.228E-04  nbox= 10
     iter. #    71  RMS(g-h-1)= 4.131E-04  nbox=  9
     iter. #    81  RMS(g-h-1)= 4.006E-04  nbox=  3
     iter. #    91  RMS(g-h-1)= 3.818E-04  nbox= 10
     iter. #   101  RMS(g-h-1)= 2.208E-04  nbox= 10
     iter. #   111  RMS(g-h-1)= 2.186E-04  nbox= 10
     iter. #   121  RMS(g-h-1)= 1.075E-04  nbox= 10
     iter. #   122  RMS(g-h-1)= 9.433E-05  nbox= 10

     End of Laue-RISM calculation


     convergence has been achieved in   122 iterations


     solvent charge   -0.10003, renormalised to   -0.10000

     Total charge of solvent (in expand-cell)
     H2O          0.000119 e
     Na+          0.101346 e
     Cl-         -0.201532 e
     Total       -0.100066 e

     Chemical potential of solvation (in expand-cell)
     H2O        GaussFluct   0.887012E+01 kcal/mol
     Na+        GaussFluct  -0.396179E+03 kcal/mol
     Cl-        GaussFluct   0.401360E+03 kcal/mol
     Total      GaussFluct   0.140506E+02 kcal/mol


     total cpu time spent up to now is      140.1 secs

     total energy              =     -12.38266225 Ry
     Harris-Foulkes estimate   =     -12.38246376 Ry
     estimated scf accuracy    <       0.00096603 Ry

     iteration #  3     ecut=    25.00 Ry     beta=0.20
     Davidson diagonalization with overlap
     ethr =  4.00E-07,  avg # of iterations =  1.0

     Laue-RISM Calculation

     convergence threshold    = 1.000E-04
     iter. #     1  RMS(g-h-1)= 2.891E-02  nbox=  0
     iter. #    11  RMS(g-h-1)= 4.633E-04  nbox=  9
     iter. #    21  RMS(g-h-1)= 1.917E-04  nbox= 10
     iter. #    31  RMS(g-h-1)= 1.122E-04  nbox= 10
     iter. #    37  RMS(g-h-1)= 9.827E-05  nbox= 10

     End of Laue-RISM calculation


     convergence has been achieved in    37 iterations


     solvent charge   -0.10019, renormalised to   -0.10000

     Total charge of solvent (in expand-cell)
     H2O          0.000054 e
     Na+          0.101369 e
     Cl-         -0.201653 e
     Total       -0.100230 e

     Chemical potential of solvation (in expand-cell)
     H2O        GaussFluct   0.886183E+01 kcal/mol
     Na+        GaussFluct  -0.396095E+03 kcal/mol
     Cl-        GaussFluct   0.401271E+03 kcal/mol
     Total      GaussFluct   0.140383E+02 kcal/mol


     total cpu time spent up to now is      141.5 secs

     End of self-consistent calculation

          k = 0.0000 0.0000 0.0000 (  2491 PWs)   bands (ev):

   -16.7504 -14.5572 -11.4625  -8.3951  -4.3631  -2.3718  -1.4835  -0.4380

          k = 0.0000-0.5774 0.0000 (  2408 PWs)   bands (ev):

   -10.9558 -10.8531  -9.0935  -8.4094  -5.7466  -5.4905  -2.8273  -2.6763

          k = 0.5000-0.2887 0.0000 (  2408 PWs)   bands (ev):

   -10.9573 -10.8518  -9.0942  -8.4082  -5.7457  -5.4906  -2.8324  -2.6725

     the Fermi energy is    -5.7235 ev

!    total energy              =     -12.38270355 Ry
     Harris-Foulkes estimate   =     -12.38274067 Ry
     estimated scf accuracy    <       0.00000032 Ry

     The total energy is the sum of the following terms:

     one-electron contribution =     163.83895959 Ry
     hartree contribution      =     -79.89120215 Ry
     xc contribution           =      -4.74168851 Ry
     ewald contribution        =     -91.62920232 Ry
     solvation energy (RISM)   =       0.04477298 Ry
     smearing contrib. (-TS)   =      -0.00434314 Ry

     convergence has been achieved in   3 iterations

     Forces acting on atoms (cartesian axes, Ry/au):

     atom    1 type  1   force =     0.00000000   -0.00005071   -0.00558098
     atom    2 type  1   force =     0.00000000    0.00030792   -0.00163678
     atom    3 type  1   force =     0.00000000   -0.00025721    0.00099566

     Total force =     0.001916     Total SCF correction =     0.000064

     bfgs converged in   2 scf cycles and   1 bfgs steps
     (criteria: energy <  1.0E-04 Ry, force <  2.0E-03 Ry/Bohr)

     End of BFGS Geometry Optimization

     Final energy   =     -12.3827035490 Ry
Begin final coordinates

ATOMIC_POSITIONS (angstrom)
Al       0.000000000   0.000000000  -2.000000000    0   0   0
Al       0.000000000   1.650000000   0.088203758    0   0   1
Al       1.430000000   0.830000000   2.171123928    0   0   1
End final coordinates



     Writing output data file Al-NaCl_aq.save

     init_run     :     10.26s CPU     10.42s WALL (       1 calls)
     electrons    :    100.76s CPU    104.43s WALL (       2 calls)
     update_pot   :      0.20s CPU      0.20s WALL (       1 calls)
     forces       :      2.58s CPU      2.58s WALL (       2 calls)

     Called by init_run:
     wfcinit      :      0.05s CPU      0.05s WALL (       1 calls)
     potinit      :      9.99s CPU     10.13s WALL (       1 calls)

     Called by electrons:
     c_bands      :      1.67s CPU      1.72s WALL (      23 calls)
     sum_band     :      0.38s CPU      0.39s WALL (      23 calls)
     v_of_rho     :      1.24s CPU      1.24s WALL (      25 calls)
     mix_rho      :      0.09s CPU      0.09s WALL (      23 calls)

     Called by c_bands:
     init_us_2    :      0.04s CPU      0.04s WALL (     147 calls)
     cegterg      :      1.62s CPU      1.66s WALL (      69 calls)

     Called by sum_band:

     Called by *egterg:
     h_psi        :      1.39s CPU      1.42s WALL (     315 calls)
     g_psi        :      0.00s CPU      0.01s WALL (     243 calls)
     cdiaghg      :      0.06s CPU      0.06s WALL (     309 calls)

     Called by h_psi:
     h_psi:pot    :      1.38s CPU      1.42s WALL (     315 calls)
     h_psi:calbec :      0.09s CPU      0.08s WALL (     315 calls)
     vloc_psi     :      1.23s CPU      1.26s WALL (     315 calls)
     add_vuspsi   :      0.07s CPU      0.07s WALL (     315 calls)

     General routines
     calbec       :      0.10s CPU      0.09s WALL (     339 calls)
     fft          :      0.44s CPU      0.44s WALL (     428 calls)
     ffts         :      0.02s CPU      0.02s WALL (      48 calls)
     fftw         :      1.34s CPU      1.33s WALL (    3674 calls)
     fftc         :      0.03s CPU      0.03s WALL (      50 calls)
     interpolate  :      0.07s CPU      0.07s WALL (      48 calls)
     davcio       :      0.00s CPU      0.00s WALL (       3 calls)

     Parallel routines
     fft_scatter  :      3.57s CPU      4.24s WALL (   31637 calls)

     RISM routines
     1DRISM_pre   :      0.00s CPU      0.00s WALL (       1 calls)
     1DRISM_run   :     23.26s CPU     23.72s WALL (       1 calls)
     3DRISM_pre   :      1.03s CPU      1.05s WALL (       1 calls)
     3DRISM_run   :    106.45s CPU    110.18s WALL (      25 calls)
     3DRISM_ions  :      0.84s CPU      0.84s WALL (       1 calls)
     3DRISM_for   :      2.33s CPU      2.32s WALL (       2 calls)
     3DRISM_vsol  :      0.05s CPU      0.06s WALL (      25 calls)
     3DRISM_esol  :      0.01s CPU      0.01s WALL (      25 calls)

     PWSCF        :  2m18.65s CPU     2m23.01s WALL


   This run was terminated on:   1:40:50   1Mar2017            

=------------------------------------------------------------------------------=
   JOB DONE.
=------------------------------------------------------------------------------=
