
     Program PWSCF v.6.1 starts on 15Apr2021 at 18:56:36 

     This program is part of the open-source Quantum ESPRESSO suite
     for quantum simulation of materials; please cite
         "P. Giannozzi et al., J. Phys.:Condens. Matter 21 395502 (2009);
          URL http://www.quantum-espresso.org", 
     in publications or presentations arising from this work. More details at
     http://www.quantum-espresso.org/quote

     Parallel version (MPI), running on     4 processors
     R & G space division:  proc/nbgrp/npool/nimage =       4
     Waiting for input...
     Reading input from standard input

     Current dimensions of program PWSCF are:
     Max number of different atomic species (ntypx) = 10
     Max number of k-points (npk) =  40000
     Max angular momentum in pseudopotentials (lmaxx) =  3
     Message from routine iosys_1drism:
     default density from MOL file(H2O.spc.MOL) is used

     Subspace diagonalization in iterative solution of the eigenvalue problem:
     a serial algorithm will be used


     Molecule # 1 for H2O read from file:
     /Users/otani/Program/q-e/pseudo/H2O.spc.MOL
     Density:
         0.58585856E+01 cell^-1
         0.49533750E-02 bohr^-3
         0.55506881E+02 mol/L
         0.99997200E+00 g/cm^3
     Number of atoms:   3
     Atoms:
       #  atom      X (angs)      Y (angs)      Z (angs)      Q (e)         E (kcal/mol)  S (angs)
       1  O/h2o     0.00000000    0.00000000    0.00000000   -0.82000000    0.15540000    3.16600000
       2  H/h2o     0.81649000    0.57736000    0.00000000    0.41000000    0.04600000    1.00000000
       3  H/h2o    -0.81649000    0.57736000    0.00000000    0.41000000    0.04600000    1.00000000


     Molecule # 2 for Na+ read from file:
     /Users/otani/Program/q-e/pseudo/Na+.aq.MOL
     Density:
         0.52773507E+00 cell^-1
         0.44619468E-03 bohr^-3
         0.50000000E+01 mol/L
         0.11494885E+00 g/cm^3
     Number of atoms:   1
     Atoms:
       #  atom      X (angs)      Y (angs)      Z (angs)      Q (e)         E (kcal/mol)  S (angs)
       1  Na        0.00000000    0.00000000    0.00000000    1.00000000    0.13010000    2.35000000


     Molecule # 3 for Cl- read from file:
     /Users/otani/Program/q-e/pseudo/Cl-.aq.MOL
     Density:
         0.52773507E+00 cell^-1
         0.44619468E-03 bohr^-3
         0.50000000E+01 mol/L
         0.17726350E+00 g/cm^3
     Number of atoms:   1
     Atoms:
       #  atom      X (angs)      Y (angs)      Z (angs)      Q (e)         E (kcal/mol)  S (angs)
       1  Cl        0.00000000    0.00000000    0.00000000   -1.00000000    0.10010000    4.40000000


     1D-RISM info
     ------------
     closure equation        =           KH
     temperature             =     300.0000  kelvin
     coulomb smearing radius =       2.0000  bohr
     number of solvent sites =            5
     number of grids         =         5008
     maximum of R-space      =     999.8003  bohr
     maximum of G-space      =      15.7315  bohr^-1
     number of iterations    =        50000
     convergence threshold   =      1.0E-08
     Gaussian width of bonds =       0.4000  bohr
     size of MDIIS           =           20
     step of MDIIS           =       0.5000
     number of processes     =            4


     1D-RISM Calculation

     iter. #     1  RMS(g-h-1)= 1.717E-04  nbox=  0  T= 2400.00K
     iter. #   101  RMS(g-h-1)= 9.241E-06  nbox=  2  T=  711.11K
     iter. #   201  RMS(g-h-1)= 4.780E-06  nbox=  3  T=  316.05K
     iter. #   301  RMS(g-h-1)= 4.137E-07  nbox= 18  T=  300.00K
     iter. #   401  RMS(g-h-1)= 8.296E-08  nbox= 20  T=  300.00K
     iter. #   501  RMS(g-h-1)= 4.518E-08  nbox= 20  T=  300.00K
     iter. #   601  RMS(g-h-1)= 2.963E-08  nbox= 20  T=  300.00K
     iter. #   701  RMS(g-h-1)= 2.436E-08  nbox= 20  T=  300.00K
     iter. #   801  RMS(g-h-1)= 2.042E-08  nbox= 20  T=  300.00K
     iter. #   901  RMS(g-h-1)= 1.725E-08  nbox= 20  T=  300.00K
     iter. #  1001  RMS(g-h-1)= 1.420E-08  nbox= 20  T=  300.00K
     iter. #  1101  RMS(g-h-1)= 1.259E-08  nbox= 20  T=  300.00K
     iter. #  1201  RMS(g-h-1)= 1.047E-08  nbox= 20  T=  300.00K
     iter. #  1236  RMS(g-h-1)= 9.997E-09  nbox= 20  T=  300.00K

     End of 1D-RISM calculation


     convergence has been achieved in  1236 iterations


     Chemical potential of solvation

     H2O        H2O        Closure      0.746375E+01 kcal/mol
                           GaussFluct   0.431745E+01 kcal/mol

                Na+        Closure     -0.142778E+01 kcal/mol
                           GaussFluct  -0.161051E+01 kcal/mol

                Cl-        Closure     -0.265386E+00 kcal/mol
                           GaussFluct  -0.490885E+00 kcal/mol

                Total      Closure      0.577059E+01 kcal/mol
                           GaussFluct   0.221606E+01 kcal/mol

     Na+        H2O        Closure     -0.158503E+02 kcal/mol
                           GaussFluct  -0.178789E+02 kcal/mol

                Na+        Closure      0.175768E+07 kcal/mol
                           GaussFluct   0.175768E+07 kcal/mol

                Cl-        Closure     -0.175774E+07 kcal/mol
                           GaussFluct  -0.175774E+07 kcal/mol

                Total      Closure     -0.798612E+02 kcal/mol
                           GaussFluct  -0.821085E+02 kcal/mol

     Cl-        H2O        Closure     -0.294615E+01 kcal/mol
                           GaussFluct  -0.544950E+01 kcal/mol

                Na+        Closure     -0.175774E+07 kcal/mol
                           GaussFluct  -0.175774E+07 kcal/mol

                Cl-        Closure      0.175768E+07 kcal/mol
                           GaussFluct   0.175768E+07 kcal/mol

                Total      Closure     -0.635409E+02 kcal/mol
                           GaussFluct  -0.663221E+02 kcal/mol


     Parallelization info
     --------------------
     sticks:   dense  smooth     PW     G-vecs:    dense   smooth      PW
     Min         112      49     15                16816     4981     897
     Max         113      50     16                16825     5012     912
     Sum         451     199     61                67285    20003    3613



     bravais-lattice index     =            0
     lattice parameter (alat)  =       5.4118  a.u.
     unit-cell volume          =    1182.7462 (a.u.)^3
     number of atoms/cell      =            3
     number of atomic types    =            1
     number of electrons       =         8.90
     number of Kohn-Sham states=            8
     kinetic-energy cutoff     =      25.0000  Ry
     charge density cutoff     =     225.0000  Ry
     convergence threshold     =      1.0E-06
     mixing beta               =       0.2000
     number of iterations used =            8  plain     mixing
     Exchange-correlation      =  SLA  PW   PBE  PBE ( 1  4  3  4 0 0)

     Effective Screening Medium Method
     =================================
     Boundary Conditions: Vacuum-Slab-Vacuum
     total charge in unit cell        =   0.1000
     grid points for fit at edges     =        4 


     celldm(1)=   5.411765  celldm(2)=   0.000000  celldm(3)=   0.000000
     celldm(4)=   0.000000  celldm(5)=   0.000000  celldm(6)=   0.000000

     crystal axes: (cart. coord. in units of alat)
               a(1) = (   1.000000   0.000000   0.000000 )  
               a(2) = (   0.500000   0.866025   0.000000 )  
               a(3) = (   0.000000   0.000000   8.616763 )  

     reciprocal axes: (cart. coord. in units 2 pi/alat)
               b(1) = (  1.000000 -0.577350  0.000000 )  
               b(2) = (  0.000000  1.154701  0.000000 )  
               b(3) = (  0.000000  0.000000  0.116053 )  


     PseudoPot. # 1 for Al read from file:
     /Users/otani/Program/q-e/pseudo/Al.pbe-n-van.UPF
     MD5 check sum: cbc97ad259b400557db688b98a6ada97
     Pseudo is Ultrasoft + core correction, Zval =  3.0
     Generated by new atomic code, or converted to UPF format
     Using radial grid of  893 points,  2 beta functions with: 
                l(1) =   0
                l(2) =   1
     Q(r) pseudized with  8 coefficients,  rinner =    0.900   0.900   0.900


     atomic species   valence    mass     pseudopotential
        Al             3.00    26.98154     Al( 1.00)

      6 Sym. Ops. (no inversion) found ( 6 have fractional translation)



   Cartesian axes

     site n.     atom                  positions (alat units)
         1           Al  tau(   1) = (   0.0000000   0.0000000  -0.8164966  )
         2           Al  tau(   2) = (   1.0000000   0.5773503   0.8164966  )
         3           Al  tau(   3) = (   0.5000000   0.2886751   0.0000000  )

     number of k points=     2  gaussian smearing, width (Ry)=  0.0100
                       cart. coord. in units 2pi/alat
        k(    1) = (   0.0000000   0.0000000   0.0000000), wk =   0.5000000
        k(    2) = (   0.0000000  -0.5773503   0.0000000), wk =   1.5000000

     Dense  grid:    67285 G-vectors     FFT dimensions: (  25,  25, 225)

     Smooth grid:    20003 G-vectors     FFT dimensions: (  18,  18, 150)

     Estimated max dynamical RAM per process >      10.08MB

     Estimated total allocated dynamical RAM >      40.32MB

     Solute:
       # atom     E (kcal/mol)  S (angs)
       1  Al      0.50500000    4.00815333    UFF
       2  Al      0.50500000    4.00815333    UFF
       3  Al      0.50500000    4.00815333    UFF

     Wall:
       Density =    0.01000000  bohr^-3
       E       =    0.10000000  kcal/mol
       S       =    4.00000000  angs


     Laue-RISM info
     --------------
     closure equation        =           KH
     temperature             =     300.0000  kelvin
     coulomb smearing radius =       2.0000  bohr
     number of solvent sites =            4
     solvent sites           =    O/h2o   H/h2o      Na      Cl
     number of iterations    =         5000
     convergence threshold   =      1.0E-05
     convergence level       =       0.1000
     size of MDIIS           =           10
     step of MDIIS           =       0.8000
     solvent cutoff          =     100.0000  Ry
     Custom grid:    20003 G-vectors     FFT dimensions: (  18,  18, 150)

     Boundary Conditions        : Vacuum-Slab-Solvent
     unit-cell (in bohr)        : [ -23.315949  23.315949]
     expand-cell (in bohr)      : [ -23.315949  76.165434]
     solvent of right (in bohr) : [   0.000000  76.165434]
     buffer  of right (in bohr) : [  -8.082862   0.000000]
     repulsive wall (in bohr)   : [  -Infinity  -2.286273]
     reference of potential     : right-hand side
     #grids to fit at edges of unit-cell =    4
     Laue grid:      199 Gxy-vectors     FFT dimensions: (  18,  18, 320)


     Initial potential from superposition of free atoms

     starting charge    8.99260, renormalised to    8.90000

     negative rho (up, down):  1.340E-05 0.000E+00

     Laue-RISM Calculation

     convergence threshold    = 5.012E-03
     iter. #     1  RMS(g-h-1)= 2.178E+00  nbox=  0
     iter. #    11  RMS(g-h-1)= 1.156E-01  nbox= 10
     iter. #    21  RMS(g-h-1)= 5.597E-02  nbox= 10
     iter. #    31  RMS(g-h-1)= 3.961E-02  nbox= 10
     iter. #    41  RMS(g-h-1)= 2.683E-02  nbox= 10
     iter. #    51  RMS(g-h-1)= 1.883E-02  nbox= 10
     iter. #    61  RMS(g-h-1)= 1.417E-02  nbox= 10
     iter. #    71  RMS(g-h-1)= 1.075E-02  nbox=  3
     iter. #    81  RMS(g-h-1)= 8.572E-03  nbox= 10
     iter. #    91  RMS(g-h-1)= 6.074E-03  nbox=  7
     iter. #    96  RMS(g-h-1)= 4.868E-03  nbox= 10

     End of Laue-RISM calculation


     convergence has been achieved in    96 iterations


     solvent charge    0.01984, renormalised to   -0.10000

     Total number of solvent (in expand-cell)
     H2O            8.692131
     Na+            0.728096
     Cl-            0.747643

     Total charge of solvent (in expand-cell)
     H2O            0.039384 e
     Na+            0.728096 e
     Cl-           -0.747643 e
     Total          0.019837 e

     Chemical potential of solvation (in expand-cell)
     H2O        GaussFluct   0.102003E+02 kcal/mol
     Na+        GaussFluct  -0.498206E+03 kcal/mol
     Cl-        GaussFluct   0.505955E+03 kcal/mol
     Total      GaussFluct   0.179486E+02 kcal/mol

     Starting wfc are   12 randomized atomic wfcs

     total cpu time spent up to now is      111.1 secs

     Self-consistent Calculation

     iteration #  1     ecut=    25.00 Ry     beta=0.20
     Davidson diagonalization with overlap
     c_bands:  2 eigenvalues not converged
     ethr =  1.00E-02,  avg # of iterations = 12.0

     negative rho (up, down):  2.045E-08 0.000E+00

     Laue-RISM Calculation

     convergence threshold    = 5.012E-03
     iter. #     1  RMS(g-h-1)= 1.141E-01  nbox=  0
     iter. #    11  RMS(g-h-1)= 2.529E-02  nbox= 10
     iter. #    21  RMS(g-h-1)= 1.579E-02  nbox= 10
     iter. #    31  RMS(g-h-1)= 1.440E-02  nbox= 10
     iter. #    41  RMS(g-h-1)= 1.270E-02  nbox= 10
     iter. #    51  RMS(g-h-1)= 1.108E-02  nbox=  5
     iter. #    61  RMS(g-h-1)= 9.897E-03  nbox= 10
     iter. #    71  RMS(g-h-1)= 9.070E-03  nbox=  9
     iter. #    81  RMS(g-h-1)= 8.806E-03  nbox=  3
     iter. #    91  RMS(g-h-1)= 8.438E-03  nbox= 10
     iter. #   101  RMS(g-h-1)= 7.798E-03  nbox=  7
     iter. #   111  RMS(g-h-1)= 5.953E-03  nbox= 10
     iter. #   117  RMS(g-h-1)= 4.839E-03  nbox= 10

     End of Laue-RISM calculation


     convergence has been achieved in   117 iterations


     solvent charge   -0.06680, renormalised to   -0.10000

     Total number of solvent (in expand-cell)
     H2O            8.533996
     Na+            0.724190
     Cl-            0.788028

     Total charge of solvent (in expand-cell)
     H2O           -0.002967 e
     Na+            0.724190 e
     Cl-           -0.788028 e
     Total         -0.066805 e

     Chemical potential of solvation (in expand-cell)
     H2O        GaussFluct   0.410022E+01 kcal/mol
     Na+        GaussFluct  -0.198595E+03 kcal/mol
     Cl-        GaussFluct   0.183035E+03 kcal/mol
     Total      GaussFluct  -0.114589E+02 kcal/mol


     total cpu time spent up to now is      121.4 secs

     total energy              =     -35.33084475 Ry
     Harris-Foulkes estimate   =     -37.63751809 Ry
     estimated scf accuracy    <       5.23882639 Ry

     iteration #  2     ecut=    25.00 Ry     beta=0.20
     Davidson diagonalization with overlap
     ethr =  1.00E-02,  avg # of iterations = 13.5

     Laue-RISM Calculation

     convergence threshold    = 5.012E-03
     iter. #     1  RMS(g-h-1)= 1.055E-01  nbox=  0
     iter. #    11  RMS(g-h-1)= 1.675E-02  nbox= 10
     iter. #    21  RMS(g-h-1)= 8.914E-03  nbox= 10
     iter. #    31  RMS(g-h-1)= 7.529E-03  nbox= 10
     iter. #    41  RMS(g-h-1)= 6.503E-03  nbox= 10
     iter. #    51  RMS(g-h-1)= 5.507E-03  nbox=  4
     iter. #    56  RMS(g-h-1)= 5.004E-03  nbox=  9

     End of Laue-RISM calculation


     convergence has been achieved in    56 iterations


     solvent charge   -0.16515, renormalised to   -0.10000

     Total number of solvent (in expand-cell)
     H2O            8.492384
     Na+            0.724802
     Cl-            0.876141

     Total charge of solvent (in expand-cell)
     H2O           -0.013809 e
     Na+            0.724802 e
     Cl-           -0.876141 e
     Total         -0.165147 e

     Chemical potential of solvation (in expand-cell)
     H2O        GaussFluct   0.143784E+02 kcal/mol
     Na+        GaussFluct  -0.472263E+03 kcal/mol
     Cl-        GaussFluct   0.486532E+03 kcal/mol
     Total      GaussFluct   0.286465E+02 kcal/mol


     total cpu time spent up to now is      126.3 secs

     total energy              =     -33.96787269 Ry
     Harris-Foulkes estimate   =     -41.20054496 Ry
     estimated scf accuracy    <      47.40009401 Ry

     iteration #  3     ecut=    25.00 Ry     beta=0.20
     Davidson diagonalization with overlap
     ethr =  1.00E-02,  avg # of iterations = 10.0

     Laue-RISM Calculation

     convergence threshold    = 5.012E-03
     iter. #     1  RMS(g-h-1)= 1.944E-02  nbox=  0
     iter. #    11  RMS(g-h-1)= 6.510E-03  nbox= 10
     iter. #    21  RMS(g-h-1)= 5.899E-03  nbox= 10
     iter. #    31  RMS(g-h-1)= 5.511E-03  nbox=  8
     iter. #    35  RMS(g-h-1)= 4.941E-03  nbox= 10

     End of Laue-RISM calculation


     convergence has been achieved in    35 iterations


     solvent charge   -0.13488, renormalised to   -0.10000

     Total number of solvent (in expand-cell)
     H2O            8.518906
     Na+            0.729318
     Cl-            0.853712

     Total charge of solvent (in expand-cell)
     H2O           -0.010484 e
     Na+            0.729318 e
     Cl-           -0.853712 e
     Total         -0.134877 e

     Chemical potential of solvation (in expand-cell)
     H2O        GaussFluct   0.156546E+02 kcal/mol
     Na+        GaussFluct  -0.475979E+03 kcal/mol
     Cl-        GaussFluct   0.488867E+03 kcal/mol
     Total      GaussFluct   0.285430E+02 kcal/mol


     total cpu time spent up to now is      129.4 secs

     total energy              =     -37.27641670 Ry
     Harris-Foulkes estimate   =     -37.35338214 Ry
     estimated scf accuracy    <       1.09743125 Ry

     iteration #  4     ecut=    25.00 Ry     beta=0.20
     Davidson diagonalization with overlap
     ethr =  1.00E-02,  avg # of iterations =  1.0

     Laue-RISM Calculation

     convergence threshold    = 5.012E-03
     iter. #     1  RMS(g-h-1)= 5.124E-02  nbox=  0
     iter. #    11  RMS(g-h-1)= 1.040E-02  nbox= 10
     iter. #    21  RMS(g-h-1)= 7.151E-03  nbox= 10
     iter. #    31  RMS(g-h-1)= 6.670E-03  nbox= 10
     iter. #    41  RMS(g-h-1)= 5.815E-03  nbox=  9
     iter. #    51  RMS(g-h-1)= 5.003E-03  nbox=  3

     End of Laue-RISM calculation


     convergence has been achieved in    51 iterations


     solvent charge   -0.15186, renormalised to   -0.10000

     Total number of solvent (in expand-cell)
     H2O            8.483151
     Na+            0.728148
     Cl-            0.873494

     Total charge of solvent (in expand-cell)
     H2O           -0.006512 e
     Na+            0.728148 e
     Cl-           -0.873494 e
     Total         -0.151858 e

     Chemical potential of solvation (in expand-cell)
     H2O        GaussFluct   0.148980E+02 kcal/mol
     Na+        GaussFluct  -0.478538E+03 kcal/mol
     Cl-        GaussFluct   0.490450E+03 kcal/mol
     Total      GaussFluct   0.268098E+02 kcal/mol


     total cpu time spent up to now is      133.8 secs

     total energy              =     -37.22673805 Ry
     Harris-Foulkes estimate   =     -37.29730279 Ry
     estimated scf accuracy    <       0.73127681 Ry

     iteration #  5     ecut=    25.00 Ry     beta=0.20
     Davidson diagonalization with overlap
     ethr =  8.22E-03,  avg # of iterations =  1.0

     negative rho (up, down):  1.028E-08 0.000E+00

     Laue-RISM Calculation

     convergence threshold    = 5.012E-03
     iter. #     1  RMS(g-h-1)= 1.125E-01  nbox=  0
     iter. #    11  RMS(g-h-1)= 2.011E-02  nbox= 10
     iter. #    21  RMS(g-h-1)= 8.718E-03  nbox= 10
     iter. #    31  RMS(g-h-1)= 7.098E-03  nbox= 10
     iter. #    41  RMS(g-h-1)= 6.188E-03  nbox=  3
     iter. #    51  RMS(g-h-1)= 5.465E-03  nbox= 10
     iter. #    57  RMS(g-h-1)= 4.963E-03  nbox=  3

     End of Laue-RISM calculation


     convergence has been achieved in    57 iterations


     solvent charge   -0.17868, renormalised to   -0.10000

     Total number of solvent (in expand-cell)
     H2O            8.464672
     Na+            0.730792
     Cl-            0.881268

     Total charge of solvent (in expand-cell)
     H2O           -0.028204 e
     Na+            0.730792 e
     Cl-           -0.881268 e
     Total         -0.178680 e

     Chemical potential of solvation (in expand-cell)
     H2O        GaussFluct   0.144115E+02 kcal/mol
     Na+        GaussFluct  -0.465719E+03 kcal/mol
     Cl-        GaussFluct   0.472782E+03 kcal/mol
     Total      GaussFluct   0.214749E+02 kcal/mol


     total cpu time spent up to now is      138.8 secs

     total energy              =     -37.19334829 Ry
     Harris-Foulkes estimate   =     -37.25203349 Ry
     estimated scf accuracy    <       0.36871160 Ry

     iteration #  6     ecut=    25.00 Ry     beta=0.20
     Davidson diagonalization with overlap
     ethr =  4.14E-03,  avg # of iterations =  2.5

     Laue-RISM Calculation

     convergence threshold    = 2.577E-03
     iter. #     1  RMS(g-h-1)= 3.114E-02  nbox=  0
     iter. #    11  RMS(g-h-1)= 5.416E-03  nbox= 10
     iter. #    21  RMS(g-h-1)= 4.345E-03  nbox= 10
     iter. #    31  RMS(g-h-1)= 3.969E-03  nbox=  5
     iter. #    41  RMS(g-h-1)= 3.614E-03  nbox= 10
     iter. #    51  RMS(g-h-1)= 3.441E-03  nbox=  9
     iter. #    61  RMS(g-h-1)= 3.141E-03  nbox=  3
     iter. #    71  RMS(g-h-1)= 2.946E-03  nbox= 10
     iter. #    77  RMS(g-h-1)= 2.534E-03  nbox=  3

     End of Laue-RISM calculation


     convergence has been achieved in    77 iterations


     solvent charge   -0.09312, renormalised to   -0.10000

     Total number of solvent (in expand-cell)
     H2O            8.534051
     Na+            0.726466
     Cl-            0.819909

     Total charge of solvent (in expand-cell)
     H2O            0.000322 e
     Na+            0.726466 e
     Cl-           -0.819909 e
     Total         -0.093121 e

     Chemical potential of solvation (in expand-cell)
     H2O        GaussFluct   0.977838E+01 kcal/mol
     Na+        GaussFluct  -0.454021E+03 kcal/mol
     Cl-        GaussFluct   0.461059E+03 kcal/mol
     Total      GaussFluct   0.168163E+02 kcal/mol


     total cpu time spent up to now is      145.1 secs

     total energy              =     -37.26337241 Ry
     Harris-Foulkes estimate   =     -37.26721921 Ry
     estimated scf accuracy    <       0.02852376 Ry

     iteration #  7     ecut=    25.00 Ry     beta=0.20
     Davidson diagonalization with overlap
     ethr =  3.20E-04,  avg # of iterations = 14.5

     Laue-RISM Calculation

     convergence threshold    = 2.275E-03
     iter. #     1  RMS(g-h-1)= 2.626E-02  nbox=  0
     iter. #    11  RMS(g-h-1)= 2.609E-03  nbox= 10
     iter. #    14  RMS(g-h-1)= 2.230E-03  nbox= 10

     End of Laue-RISM calculation


     convergence has been achieved in    14 iterations


     solvent charge   -0.12398, renormalised to   -0.10000

     Total number of solvent (in expand-cell)
     H2O            8.529332
     Na+            0.718257
     Cl-            0.830797

     Total charge of solvent (in expand-cell)
     H2O           -0.011442 e
     Na+            0.718257 e
     Cl-           -0.830797 e
     Total         -0.123982 e

     Chemical potential of solvation (in expand-cell)
     H2O        GaussFluct   0.108564E+02 kcal/mol
     Na+        GaussFluct  -0.444820E+03 kcal/mol
     Cl-        GaussFluct   0.452216E+03 kcal/mol
     Total      GaussFluct   0.182520E+02 kcal/mol


     total cpu time spent up to now is      146.5 secs

     total energy              =     -37.31032356 Ry
     Harris-Foulkes estimate   =     -37.30134298 Ry
     estimated scf accuracy    <       0.02601455 Ry

     iteration #  8     ecut=    25.00 Ry     beta=0.20
     Davidson diagonalization with overlap
     ethr =  2.92E-04,  avg # of iterations =  1.0

     negative rho (up, down):  1.357E-08 0.000E+00

     Laue-RISM Calculation

     convergence threshold    = 5.012E-03
     iter. #     1  RMS(g-h-1)= 8.429E-02  nbox=  0
     iter. #    11  RMS(g-h-1)= 1.258E-02  nbox= 10
     iter. #    21  RMS(g-h-1)= 5.011E-03  nbox= 10

     End of Laue-RISM calculation


     convergence has been achieved in    21 iterations


     solvent charge   -0.14984, renormalised to   -0.10000

     Total number of solvent (in expand-cell)
     H2O            8.498660
     Na+            0.717606
     Cl-            0.851945

     Total charge of solvent (in expand-cell)
     H2O           -0.015501 e
     Na+            0.717606 e
     Cl-           -0.851945 e
     Total         -0.149841 e

     Chemical potential of solvation (in expand-cell)
     H2O        GaussFluct   0.101953E+02 kcal/mol
     Na+        GaussFluct  -0.433476E+03 kcal/mol
     Cl-        GaussFluct   0.439483E+03 kcal/mol
     Total      GaussFluct   0.162018E+02 kcal/mol


     total cpu time spent up to now is      148.4 secs

     total energy              =     -37.31126592 Ry
     Harris-Foulkes estimate   =     -37.31435107 Ry
     estimated scf accuracy    <       0.07876023 Ry

     iteration #  9     ecut=    25.00 Ry     beta=0.20
     Davidson diagonalization with overlap
     ethr =  2.92E-04,  avg # of iterations = 10.0

     Laue-RISM Calculation

     convergence threshold    = 1.342E-03
     iter. #     1  RMS(g-h-1)= 1.574E-02  nbox=  0
     iter. #    11  RMS(g-h-1)= 3.531E-03  nbox= 10
     iter. #    21  RMS(g-h-1)= 3.099E-03  nbox= 10
     iter. #    31  RMS(g-h-1)= 2.749E-03  nbox=  6
     iter. #    41  RMS(g-h-1)= 2.343E-03  nbox= 10
     iter. #    51  RMS(g-h-1)= 2.085E-03  nbox= 10
     iter. #    61  RMS(g-h-1)= 1.390E-03  nbox= 10
     iter. #    62  RMS(g-h-1)= 1.338E-03  nbox= 10

     End of Laue-RISM calculation


     convergence has been achieved in    62 iterations


     solvent charge   -0.10705, renormalised to   -0.10000

     Total number of solvent (in expand-cell)
     H2O            8.537012
     Na+            0.711316
     Cl-            0.823048

     Total charge of solvent (in expand-cell)
     H2O            0.004684 e
     Na+            0.711316 e
     Cl-           -0.823048 e
     Total         -0.107048 e

     Chemical potential of solvation (in expand-cell)
     H2O        GaussFluct   0.105620E+02 kcal/mol
     Na+        GaussFluct  -0.431401E+03 kcal/mol
     Cl-        GaussFluct   0.437238E+03 kcal/mol
     Total      GaussFluct   0.163987E+02 kcal/mol


     total cpu time spent up to now is      153.6 secs

     total energy              =     -37.30748651 Ry
     Harris-Foulkes estimate   =     -37.32529239 Ry
     estimated scf accuracy    <       0.01761116 Ry

     iteration # 10     ecut=    25.00 Ry     beta=0.20
     Davidson diagonalization with overlap
     ethr =  1.98E-04,  avg # of iterations =  9.0

     negative rho (up, down):  3.567E-04 0.000E+00

     Laue-RISM Calculation

     convergence threshold    = 5.663E-04
     iter. #     1  RMS(g-h-1)= 5.852E-02  nbox=  0
     iter. #    11  RMS(g-h-1)= 4.605E-03  nbox= 10
     iter. #    21  RMS(g-h-1)= 2.693E-03  nbox= 10
     iter. #    31  RMS(g-h-1)= 2.144E-03  nbox= 10
     iter. #    41  RMS(g-h-1)= 1.479E-03  nbox=  8
     iter. #    51  RMS(g-h-1)= 1.015E-03  nbox= 10
     iter. #    61  RMS(g-h-1)= 9.089E-04  nbox= 10
     iter. #    71  RMS(g-h-1)= 8.707E-04  nbox= 10
     iter. #    81  RMS(g-h-1)= 8.185E-04  nbox=  5
     iter. #    91  RMS(g-h-1)= 6.894E-04  nbox= 10
     iter. #   101  RMS(g-h-1)= 6.431E-04  nbox=  9
     iter. #   111  RMS(g-h-1)= 6.339E-04  nbox=  3
     iter. #   121  RMS(g-h-1)= 6.147E-04  nbox= 10
     iter. #   130  RMS(g-h-1)= 5.650E-04  nbox=  6

     End of Laue-RISM calculation


     convergence has been achieved in   130 iterations


     solvent charge   -0.09951, renormalised to   -0.10000

     Total number of solvent (in expand-cell)
     H2O            8.571184
     Na+            0.702127
     Cl-            0.800912

     Total charge of solvent (in expand-cell)
     H2O           -0.000725 e
     Na+            0.702127 e
     Cl-           -0.800912 e
     Total         -0.099510 e

     Chemical potential of solvation (in expand-cell)
     H2O        GaussFluct   0.103738E+02 kcal/mol
     Na+        GaussFluct  -0.416601E+03 kcal/mol
     Cl-        GaussFluct   0.422665E+03 kcal/mol
     Total      GaussFluct   0.164371E+02 kcal/mol


     total cpu time spent up to now is      164.2 secs

     total energy              =     -37.30835824 Ry
     Harris-Foulkes estimate   =     -37.30785210 Ry
     estimated scf accuracy    <       0.00930189 Ry

     iteration # 11     ecut=    25.00 Ry     beta=0.20
     Davidson diagonalization with overlap
     ethr =  1.05E-04,  avg # of iterations =  1.0

     negative rho (up, down):  9.495E-04 0.000E+00

     Laue-RISM Calculation

     convergence threshold    = 7.006E-04
     iter. #     1  RMS(g-h-1)= 3.631E-03  nbox=  0
     iter. #    10  RMS(g-h-1)= 6.654E-04  nbox=  9

     End of Laue-RISM calculation


     convergence has been achieved in    10 iterations


     solvent charge   -0.10503, renormalised to   -0.10000

     Total number of solvent (in expand-cell)
     H2O            8.568748
     Na+            0.700949
     Cl-            0.803881

     Total charge of solvent (in expand-cell)
     H2O           -0.002098 e
     Na+            0.700949 e
     Cl-           -0.803881 e
     Total         -0.105030 e

     Chemical potential of solvation (in expand-cell)
     H2O        GaussFluct   0.103552E+02 kcal/mol
     Na+        GaussFluct  -0.416167E+03 kcal/mol
     Cl-        GaussFluct   0.422425E+03 kcal/mol
     Total      GaussFluct   0.166133E+02 kcal/mol


     total cpu time spent up to now is      165.2 secs

     total energy              =     -37.31386408 Ry
     Harris-Foulkes estimate   =     -37.31098904 Ry
     estimated scf accuracy    <       0.01088786 Ry

     iteration # 12     ecut=    25.00 Ry     beta=0.20
     Davidson diagonalization with overlap
     ethr =  1.05E-04,  avg # of iterations =  1.0

     negative rho (up, down):  4.109E-04 0.000E+00

     Laue-RISM Calculation

     convergence threshold    = 1.558E-03
     iter. #     1  RMS(g-h-1)= 1.906E-02  nbox=  0
     iter. #    11  RMS(g-h-1)= 2.462E-03  nbox= 10
     iter. #    16  RMS(g-h-1)= 1.456E-03  nbox= 10

     End of Laue-RISM calculation


     convergence has been achieved in    16 iterations


     solvent charge   -0.09740, renormalised to   -0.10000

     Total number of solvent (in expand-cell)
     H2O            8.565028
     Na+            0.703690
     Cl-            0.803880

     Total charge of solvent (in expand-cell)
     H2O            0.002789 e
     Na+            0.703690 e
     Cl-           -0.803880 e
     Total         -0.097401 e

     Chemical potential of solvation (in expand-cell)
     H2O        GaussFluct   0.102078E+02 kcal/mol
     Na+        GaussFluct  -0.414714E+03 kcal/mol
     Cl-        GaussFluct   0.420411E+03 kcal/mol
     Total      GaussFluct   0.159047E+02 kcal/mol


     total cpu time spent up to now is      166.8 secs

     total energy              =     -37.31008600 Ry
     Harris-Foulkes estimate   =     -37.31407481 Ry
     estimated scf accuracy    <       0.01965748 Ry

     iteration # 13     ecut=    25.00 Ry     beta=0.20
     Davidson diagonalization with overlap
     ethr =  1.05E-04,  avg # of iterations =  1.0

     negative rho (up, down):  1.172E-06 0.000E+00

     Laue-RISM Calculation

     convergence threshold    = 1.000E-05
     iter. #     1  RMS(g-h-1)= 6.903E-03  nbox=  0
     iter. #    11  RMS(g-h-1)= 8.393E-04  nbox= 10
     iter. #    21  RMS(g-h-1)= 7.146E-04  nbox= 10
     iter. #    31  RMS(g-h-1)= 6.477E-04  nbox=  7
     iter. #    41  RMS(g-h-1)= 5.227E-04  nbox= 10
     iter. #    51  RMS(g-h-1)= 4.674E-04  nbox= 10
     iter. #    61  RMS(g-h-1)= 4.277E-04  nbox=  5
     iter. #    71  RMS(g-h-1)= 4.099E-04  nbox= 10
     iter. #    81  RMS(g-h-1)= 3.871E-04  nbox=  9
     iter. #    91  RMS(g-h-1)= 3.382E-04  nbox=  3
     iter. #   101  RMS(g-h-1)= 3.099E-04  nbox= 10
     iter. #   111  RMS(g-h-1)= 3.055E-04  nbox=  7
     iter. #   121  RMS(g-h-1)= 2.982E-04  nbox= 10
     iter. #   131  RMS(g-h-1)= 2.875E-04  nbox= 10
     iter. #   141  RMS(g-h-1)= 2.821E-04  nbox=  5
     iter. #   151  RMS(g-h-1)= 2.757E-04  nbox= 10
     iter. #   161  RMS(g-h-1)= 2.667E-04  nbox=  9
     iter. #   171  RMS(g-h-1)= 2.617E-04  nbox=  3
     iter. #   181  RMS(g-h-1)= 2.466E-04  nbox= 10
     iter. #   191  RMS(g-h-1)= 2.343E-04  nbox=  7
     iter. #   201  RMS(g-h-1)= 2.240E-04  nbox= 10
     iter. #   211  RMS(g-h-1)= 2.109E-04  nbox= 10
     iter. #   221  RMS(g-h-1)= 1.976E-04  nbox=  5
     iter. #   231  RMS(g-h-1)= 1.898E-04  nbox= 10
     iter. #   241  RMS(g-h-1)= 1.801E-04  nbox=  9
     iter. #   251  RMS(g-h-1)= 1.660E-04  nbox=  3
     iter. #   261  RMS(g-h-1)= 1.531E-04  nbox= 10
     iter. #   271  RMS(g-h-1)= 1.388E-04  nbox=  7
     iter. #   281  RMS(g-h-1)= 1.265E-04  nbox= 10
     iter. #   291  RMS(g-h-1)= 1.229E-04  nbox= 10
     iter. #   301  RMS(g-h-1)= 1.211E-04  nbox=  5
     iter. #   311  RMS(g-h-1)= 1.186E-04  nbox= 10
     iter. #   321  RMS(g-h-1)= 1.171E-04  nbox=  9
     iter. #   331  RMS(g-h-1)= 1.147E-04  nbox=  3
     iter. #   341  RMS(g-h-1)= 1.132E-04  nbox= 10
     iter. #   351  RMS(g-h-1)= 1.106E-04  nbox=  7
     iter. #   361  RMS(g-h-1)= 1.059E-04  nbox= 10
     iter. #   371  RMS(g-h-1)= 9.918E-05  nbox= 10
     iter. #   381  RMS(g-h-1)= 9.661E-05  nbox=  5
     iter. #   391  RMS(g-h-1)= 9.189E-05  nbox= 10
     iter. #   401  RMS(g-h-1)= 8.923E-05  nbox=  9
     iter. #   411  RMS(g-h-1)= 8.508E-05  nbox=  3
     iter. #   421  RMS(g-h-1)= 8.067E-05  nbox= 10
     iter. #   431  RMS(g-h-1)= 7.730E-05  nbox=  7
     iter. #   441  RMS(g-h-1)= 7.143E-05  nbox= 10
     iter. #   451  RMS(g-h-1)= 6.391E-05  nbox= 10
     iter. #   461  RMS(g-h-1)= 5.648E-05  nbox=  5
     iter. #   471  RMS(g-h-1)= 4.886E-05  nbox= 10
     iter. #   481  RMS(g-h-1)= 4.191E-05  nbox=  9
     iter. #   491  RMS(g-h-1)= 3.843E-05  nbox=  3
     iter. #   501  RMS(g-h-1)= 3.138E-05  nbox= 10
     iter. #   511  RMS(g-h-1)= 2.671E-05  nbox=  7
     iter. #   521  RMS(g-h-1)= 2.350E-05  nbox= 10
     iter. #   531  RMS(g-h-1)= 1.957E-05  nbox= 10
     iter. #   541  RMS(g-h-1)= 1.603E-05  nbox=  5
     iter. #   551  RMS(g-h-1)= 1.102E-05  nbox= 10
     iter. #   554  RMS(g-h-1)= 9.773E-06  nbox= 10

     End of Laue-RISM calculation


     convergence has been achieved in   554 iterations


     solvent charge   -0.10021, renormalised to   -0.10000

     Total number of solvent (in expand-cell)
     H2O            8.556075
     Na+            0.706186
     Cl-            0.806320

     Total charge of solvent (in expand-cell)
     H2O           -0.000080 e
     Na+            0.706186 e
     Cl-           -0.806320 e
     Total         -0.100214 e

     Chemical potential of solvation (in expand-cell)
     H2O        GaussFluct   0.924067E+01 kcal/mol
     Na+        GaussFluct  -0.417338E+03 kcal/mol
     Cl-        GaussFluct   0.422402E+03 kcal/mol
     Total      GaussFluct   0.143052E+02 kcal/mol


     total cpu time spent up to now is      212.4 secs

     total energy              =     -37.32344961 Ry
     Harris-Foulkes estimate   =     -37.31147575 Ry
     estimated scf accuracy    <       0.00025499 Ry

     iteration # 14     ecut=    25.00 Ry     beta=0.20
     Davidson diagonalization with overlap
     c_bands:  1 eigenvalues not converged
     ethr =  2.87E-06,  avg # of iterations = 13.5

     negative rho (up, down):  1.186E-07 0.000E+00

     Laue-RISM Calculation

     convergence threshold    = 1.946E-05
     iter. #     1  RMS(g-h-1)= 5.187E-03  nbox=  0
     iter. #    11  RMS(g-h-1)= 4.447E-04  nbox= 10
     iter. #    21  RMS(g-h-1)= 3.165E-04  nbox= 10
     iter. #    31  RMS(g-h-1)= 2.413E-04  nbox= 10
     iter. #    41  RMS(g-h-1)= 1.797E-04  nbox= 10
     iter. #    51  RMS(g-h-1)= 1.205E-04  nbox= 10
     iter. #    61  RMS(g-h-1)= 9.294E-05  nbox= 10
     iter. #    71  RMS(g-h-1)= 7.214E-05  nbox= 10
     iter. #    81  RMS(g-h-1)= 5.279E-05  nbox= 10
     iter. #    91  RMS(g-h-1)= 3.727E-05  nbox= 10
     iter. #   101  RMS(g-h-1)= 2.869E-05  nbox= 10
     iter. #   111  RMS(g-h-1)= 2.201E-05  nbox= 10
     iter. #   116  RMS(g-h-1)= 1.837E-05  nbox= 10

     End of Laue-RISM calculation


     convergence has been achieved in   116 iterations


     solvent charge   -0.10020, renormalised to   -0.10000

     Total number of solvent (in expand-cell)
     H2O            8.554893
     Na+            0.706719
     Cl-            0.806958

     Total charge of solvent (in expand-cell)
     H2O            0.000042 e
     Na+            0.706719 e
     Cl-           -0.806958 e
     Total         -0.100197 e

     Chemical potential of solvation (in expand-cell)
     H2O        GaussFluct   0.917496E+01 kcal/mol
     Na+        GaussFluct  -0.418387E+03 kcal/mol
     Cl-        GaussFluct   0.423442E+03 kcal/mol
     Total      GaussFluct   0.142297E+02 kcal/mol


     total cpu time spent up to now is      222.1 secs

     total energy              =     -37.32374729 Ry
     Harris-Foulkes estimate   =     -37.32373972 Ry
     estimated scf accuracy    <       0.00076913 Ry

     iteration # 15     ecut=    25.00 Ry     beta=0.20
     Davidson diagonalization with overlap
     ethr =  2.87E-06,  avg # of iterations =  6.5

     negative rho (up, down):  1.251E-07 0.000E+00

     Laue-RISM Calculation

     convergence threshold    = 1.000E-05
     iter. #     1  RMS(g-h-1)= 7.498E-03  nbox=  0
     iter. #    11  RMS(g-h-1)= 9.979E-04  nbox= 10
     iter. #    21  RMS(g-h-1)= 2.414E-04  nbox= 10
     iter. #    31  RMS(g-h-1)= 1.339E-04  nbox= 10
     iter. #    41  RMS(g-h-1)= 1.229E-04  nbox= 10
     iter. #    51  RMS(g-h-1)= 1.156E-04  nbox=  8
     iter. #    61  RMS(g-h-1)= 9.804E-05  nbox=  2
     iter. #    71  RMS(g-h-1)= 7.958E-05  nbox= 10
     iter. #    81  RMS(g-h-1)= 6.782E-05  nbox=  6
     iter. #    91  RMS(g-h-1)= 5.684E-05  nbox= 10
     iter. #   101  RMS(g-h-1)= 4.274E-05  nbox= 10
     iter. #   111  RMS(g-h-1)= 3.718E-05  nbox=  4
     iter. #   121  RMS(g-h-1)= 3.413E-05  nbox= 10
     iter. #   131  RMS(g-h-1)= 3.330E-05  nbox=  8
     iter. #   141  RMS(g-h-1)= 3.293E-05  nbox=  2
     iter. #   151  RMS(g-h-1)= 3.192E-05  nbox= 10
     iter. #   161  RMS(g-h-1)= 3.071E-05  nbox=  6
     iter. #   171  RMS(g-h-1)= 2.938E-05  nbox= 10
     iter. #   181  RMS(g-h-1)= 2.898E-05  nbox= 10
     iter. #   191  RMS(g-h-1)= 2.876E-05  nbox=  4
     iter. #   201  RMS(g-h-1)= 2.795E-05  nbox= 10
     iter. #   211  RMS(g-h-1)= 2.787E-05  nbox=  8
     iter. #   221  RMS(g-h-1)= 2.719E-05  nbox=  2
     iter. #   231  RMS(g-h-1)= 2.621E-05  nbox= 10
     iter. #   241  RMS(g-h-1)= 2.545E-05  nbox=  6
     iter. #   251  RMS(g-h-1)= 2.416E-05  nbox= 10
     iter. #   261  RMS(g-h-1)= 2.158E-05  nbox= 10
     iter. #   271  RMS(g-h-1)= 2.086E-05  nbox=  4
     iter. #   281  RMS(g-h-1)= 1.971E-05  nbox= 10
     iter. #   291  RMS(g-h-1)= 1.809E-05  nbox=  8
     iter. #   301  RMS(g-h-1)= 1.693E-05  nbox=  2
     iter. #   311  RMS(g-h-1)= 1.622E-05  nbox= 10
     iter. #   321  RMS(g-h-1)= 1.540E-05  nbox=  6
     iter. #   331  RMS(g-h-1)= 1.501E-05  nbox= 10
     iter. #   341  RMS(g-h-1)= 1.484E-05  nbox= 10
     iter. #   351  RMS(g-h-1)= 1.453E-05  nbox=  4
     iter. #   361  RMS(g-h-1)= 1.368E-05  nbox= 10
     iter. #   371  RMS(g-h-1)= 1.247E-05  nbox=  8
     iter. #   381  RMS(g-h-1)= 1.056E-05  nbox=  2
     iter. #   385  RMS(g-h-1)= 9.866E-06  nbox=  6

     End of Laue-RISM calculation


     convergence has been achieved in   385 iterations


     solvent charge   -0.09995, renormalised to   -0.10000

     Total number of solvent (in expand-cell)
     H2O            8.556350
     Na+            0.706266
     Cl-            0.806212

     Total charge of solvent (in expand-cell)
     H2O           -0.000004 e
     Na+            0.706266 e
     Cl-           -0.806212 e
     Total         -0.099950 e

     Chemical potential of solvation (in expand-cell)
     H2O        GaussFluct   0.923216E+01 kcal/mol
     Na+        GaussFluct  -0.419058E+03 kcal/mol
     Cl-        GaussFluct   0.424235E+03 kcal/mol
     Total      GaussFluct   0.144085E+02 kcal/mol


     total cpu time spent up to now is      253.5 secs

     total energy              =     -37.32320813 Ry
     Harris-Foulkes estimate   =     -37.32380481 Ry
     estimated scf accuracy    <       0.00013372 Ry

     iteration # 16     ecut=    25.00 Ry     beta=0.20
     Davidson diagonalization with overlap
     ethr =  1.50E-06,  avg # of iterations =  6.5

     negative rho (up, down):  6.393E-08 0.000E+00

     Laue-RISM Calculation

     convergence threshold    = 1.000E-05
     iter. #     1  RMS(g-h-1)= 2.884E-03  nbox=  0
     iter. #    11  RMS(g-h-1)= 3.621E-04  nbox= 10
     iter. #    21  RMS(g-h-1)= 8.597E-05  nbox= 10
     iter. #    31  RMS(g-h-1)= 5.416E-05  nbox= 10
     iter. #    41  RMS(g-h-1)= 4.833E-05  nbox=  4
     iter. #    51  RMS(g-h-1)= 3.671E-05  nbox= 10
     iter. #    61  RMS(g-h-1)= 2.967E-05  nbox= 10
     iter. #    71  RMS(g-h-1)= 2.575E-05  nbox=  8
     iter. #    81  RMS(g-h-1)= 2.371E-05  nbox=  2
     iter. #    91  RMS(g-h-1)= 2.053E-05  nbox= 10
     iter. #   101  RMS(g-h-1)= 1.742E-05  nbox=  6
     iter. #   111  RMS(g-h-1)= 1.515E-05  nbox= 10
     iter. #   121  RMS(g-h-1)= 1.408E-05  nbox= 10
     iter. #   131  RMS(g-h-1)= 1.356E-05  nbox=  4
     iter. #   141  RMS(g-h-1)= 1.301E-05  nbox= 10
     iter. #   151  RMS(g-h-1)= 1.248E-05  nbox=  8
     iter. #   161  RMS(g-h-1)= 1.195E-05  nbox=  2
     iter. #   171  RMS(g-h-1)= 1.109E-05  nbox= 10
     iter. #   181  RMS(g-h-1)= 1.034E-05  nbox=  6
     iter. #   188  RMS(g-h-1)= 9.943E-06  nbox= 10

     End of Laue-RISM calculation


     convergence has been achieved in   188 iterations


     solvent charge   -0.10015, renormalised to   -0.10000

     Total number of solvent (in expand-cell)
     H2O            8.555503
     Na+            0.706483
     Cl-            0.806569

     Total charge of solvent (in expand-cell)
     H2O           -0.000065 e
     Na+            0.706483 e
     Cl-           -0.806569 e
     Total         -0.100151 e

     Chemical potential of solvation (in expand-cell)
     H2O        GaussFluct   0.919181E+01 kcal/mol
     Na+        GaussFluct  -0.418601E+03 kcal/mol
     Cl-        GaussFluct   0.423695E+03 kcal/mol
     Total      GaussFluct   0.142854E+02 kcal/mol


     total cpu time spent up to now is      269.2 secs

     total energy              =     -37.32379332 Ry
     Harris-Foulkes estimate   =     -37.32327577 Ry
     estimated scf accuracy    <       0.00042118 Ry

     iteration # 17     ecut=    25.00 Ry     beta=0.20
     Davidson diagonalization with overlap
     ethr =  1.50E-06,  avg # of iterations =  1.0

     negative rho (up, down):  2.356E-08 0.000E+00

     Laue-RISM Calculation

     convergence threshold    = 1.000E-05
     iter. #     1  RMS(g-h-1)= 4.102E-03  nbox=  0
     iter. #    11  RMS(g-h-1)= 4.291E-04  nbox= 10
     iter. #    21  RMS(g-h-1)= 1.280E-04  nbox= 10
     iter. #    31  RMS(g-h-1)= 8.145E-05  nbox= 10
     iter. #    41  RMS(g-h-1)= 7.226E-05  nbox=  2
     iter. #    51  RMS(g-h-1)= 5.992E-05  nbox= 10
     iter. #    61  RMS(g-h-1)= 4.575E-05  nbox=  6
     iter. #    71  RMS(g-h-1)= 4.076E-05  nbox= 10
     iter. #    81  RMS(g-h-1)= 3.715E-05  nbox= 10
     iter. #    91  RMS(g-h-1)= 3.192E-05  nbox=  4
     iter. #   101  RMS(g-h-1)= 2.280E-05  nbox= 10
     iter. #   111  RMS(g-h-1)= 1.812E-05  nbox= 10
     iter. #   121  RMS(g-h-1)= 1.486E-05  nbox= 10
     iter. #   131  RMS(g-h-1)= 1.243E-05  nbox=  4
     iter. #   141  RMS(g-h-1)= 1.122E-05  nbox= 10
     iter. #   151  RMS(g-h-1)= 1.099E-05  nbox=  8
     iter. #   161  RMS(g-h-1)= 1.085E-05  nbox=  2
     iter. #   171  RMS(g-h-1)= 1.077E-05  nbox= 10
     iter. #   181  RMS(g-h-1)= 1.072E-05  nbox=  6
     iter. #   191  RMS(g-h-1)= 1.050E-05  nbox= 10
     iter. #   201  RMS(g-h-1)= 1.017E-05  nbox= 10
     iter. #   206  RMS(g-h-1)= 9.969E-06  nbox= 10

     End of Laue-RISM calculation


     convergence has been achieved in   206 iterations


     solvent charge   -0.09983, renormalised to   -0.10000

     Total number of solvent (in expand-cell)
     H2O            8.556745
     Na+            0.706081
     Cl-            0.805981

     Total charge of solvent (in expand-cell)
     H2O            0.000074 e
     Na+            0.706081 e
     Cl-           -0.805981 e
     Total         -0.099826 e

     Chemical potential of solvation (in expand-cell)
     H2O        GaussFluct   0.925288E+01 kcal/mol
     Na+        GaussFluct  -0.418986E+03 kcal/mol
     Cl-        GaussFluct   0.424173E+03 kcal/mol
     Total      GaussFluct   0.144392E+02 kcal/mol


     total cpu time spent up to now is      286.8 secs

     total energy              =     -37.32319485 Ry
     Harris-Foulkes estimate   =     -37.32382338 Ry
     estimated scf accuracy    <       0.00002169 Ry

     iteration # 18     ecut=    25.00 Ry     beta=0.20
     Davidson diagonalization with overlap
     ethr =  2.44E-07,  avg # of iterations =  2.5

     negative rho (up, down):  1.384E-08 0.000E+00

     Laue-RISM Calculation

     convergence threshold    = 1.000E-05
     iter. #     1  RMS(g-h-1)= 1.686E-03  nbox=  0
     iter. #    11  RMS(g-h-1)= 1.436E-04  nbox= 10
     iter. #    21  RMS(g-h-1)= 4.078E-05  nbox= 10
     iter. #    31  RMS(g-h-1)= 2.866E-05  nbox= 10
     iter. #    41  RMS(g-h-1)= 2.471E-05  nbox=  3
     iter. #    51  RMS(g-h-1)= 1.924E-05  nbox= 10
     iter. #    61  RMS(g-h-1)= 1.256E-05  nbox= 10
     iter. #    70  RMS(g-h-1)= 9.953E-06  nbox= 10

     End of Laue-RISM calculation


     convergence has been achieved in    70 iterations


     solvent charge   -0.10007, renormalised to   -0.10000

     Total number of solvent (in expand-cell)
     H2O            8.556636
     Na+            0.705999
     Cl-            0.806028

     Total charge of solvent (in expand-cell)
     H2O           -0.000038 e
     Na+            0.705999 e
     Cl-           -0.806028 e
     Total         -0.100067 e

     Chemical potential of solvation (in expand-cell)
     H2O        GaussFluct   0.925901E+01 kcal/mol
     Na+        GaussFluct  -0.418732E+03 kcal/mol
     Cl-        GaussFluct   0.423907E+03 kcal/mol
     Total      GaussFluct   0.144334E+02 kcal/mol


     total cpu time spent up to now is      293.4 secs

     total energy              =     -37.32341223 Ry
     Harris-Foulkes estimate   =     -37.32320409 Ry
     estimated scf accuracy    <       0.00005911 Ry

     iteration # 19     ecut=    25.00 Ry     beta=0.20
     Davidson diagonalization with overlap
     ethr =  2.44E-07,  avg # of iterations =  2.0

     negative rho (up, down):  1.555E-06 0.000E+00

     Laue-RISM Calculation

     convergence threshold    = 1.000E-05
     iter. #     1  RMS(g-h-1)= 1.226E-03  nbox=  0
     iter. #    11  RMS(g-h-1)= 1.230E-04  nbox= 10
     iter. #    21  RMS(g-h-1)= 5.484E-05  nbox= 10
     iter. #    31  RMS(g-h-1)= 4.271E-05  nbox= 10
     iter. #    41  RMS(g-h-1)= 3.629E-05  nbox=  3
     iter. #    51  RMS(g-h-1)= 2.539E-05  nbox= 10
     iter. #    61  RMS(g-h-1)= 2.140E-05  nbox=  2
     iter. #    71  RMS(g-h-1)= 1.657E-05  nbox= 10
     iter. #    81  RMS(g-h-1)= 1.483E-05  nbox=  6
     iter. #    91  RMS(g-h-1)= 1.329E-05  nbox= 10
     iter. #   101  RMS(g-h-1)= 9.813E-06  nbox= 10

     End of Laue-RISM calculation


     convergence has been achieved in   101 iterations


     solvent charge   -0.10016, renormalised to   -0.10000

     Total number of solvent (in expand-cell)
     H2O            8.556479
     Na+            0.706005
     Cl-            0.806118

     Total charge of solvent (in expand-cell)
     H2O           -0.000050 e
     Na+            0.706005 e
     Cl-           -0.806118 e
     Total         -0.100163 e

     Chemical potential of solvation (in expand-cell)
     H2O        GaussFluct   0.925404E+01 kcal/mol
     Na+        GaussFluct  -0.418584E+03 kcal/mol
     Cl-        GaussFluct   0.423743E+03 kcal/mol
     Total      GaussFluct   0.144132E+02 kcal/mol


     total cpu time spent up to now is      302.7 secs

     total energy              =     -37.32357525 Ry
     Harris-Foulkes estimate   =     -37.32341729 Ry
     estimated scf accuracy    <       0.00002607 Ry

     iteration # 20     ecut=    25.00 Ry     beta=0.20
     Davidson diagonalization with overlap
     ethr =  2.44E-07,  avg # of iterations =  1.0

     Laue-RISM Calculation

     convergence threshold    = 1.000E-05
     iter. #     1  RMS(g-h-1)= 1.135E-03  nbox=  0
     iter. #    11  RMS(g-h-1)= 1.013E-04  nbox= 10
     iter. #    21  RMS(g-h-1)= 4.457E-05  nbox= 10
     iter. #    31  RMS(g-h-1)= 3.457E-05  nbox= 10
     iter. #    41  RMS(g-h-1)= 2.929E-05  nbox=  3
     iter. #    51  RMS(g-h-1)= 2.327E-05  nbox= 10
     iter. #    61  RMS(g-h-1)= 2.044E-05  nbox=  2
     iter. #    71  RMS(g-h-1)= 1.629E-05  nbox= 10
     iter. #    81  RMS(g-h-1)= 1.466E-05  nbox=  6
     iter. #    91  RMS(g-h-1)= 1.180E-05  nbox= 10
     iter. #    98  RMS(g-h-1)= 9.642E-06  nbox=  7

     End of Laue-RISM calculation


     convergence has been achieved in    98 iterations


     solvent charge   -0.10014, renormalised to   -0.10000

     Total number of solvent (in expand-cell)
     H2O            8.556305
     Na+            0.706049
     Cl-            0.806179

     Total charge of solvent (in expand-cell)
     H2O           -0.000009 e
     Na+            0.706049 e
     Cl-           -0.806179 e
     Total         -0.100139 e

     Chemical potential of solvation (in expand-cell)
     H2O        GaussFluct   0.924287E+01 kcal/mol
     Na+        GaussFluct  -0.418427E+03 kcal/mol
     Cl-        GaussFluct   0.423566E+03 kcal/mol
     Total      GaussFluct   0.143809E+02 kcal/mol


     total cpu time spent up to now is      311.7 secs

     total energy              =     -37.32369157 Ry
     Harris-Foulkes estimate   =     -37.32357644 Ry
     estimated scf accuracy    <       0.00000621 Ry

     iteration # 21     ecut=    25.00 Ry     beta=0.20
     Davidson diagonalization with overlap
     ethr =  6.98E-08,  avg # of iterations =  3.5

     Laue-RISM Calculation

     convergence threshold    = 1.000E-05
     iter. #     1  RMS(g-h-1)= 6.807E-04  nbox=  0
     iter. #    11  RMS(g-h-1)= 1.138E-04  nbox= 10
     iter. #    21  RMS(g-h-1)= 7.238E-05  nbox= 10
     iter. #    31  RMS(g-h-1)= 4.645E-05  nbox= 10
     iter. #    41  RMS(g-h-1)= 3.591E-05  nbox= 10
     iter. #    51  RMS(g-h-1)= 3.220E-05  nbox= 10
     iter. #    61  RMS(g-h-1)= 2.162E-05  nbox= 10
     iter. #    71  RMS(g-h-1)= 1.841E-05  nbox= 10
     iter. #    81  RMS(g-h-1)= 1.770E-05  nbox= 10
     iter. #    91  RMS(g-h-1)= 1.676E-05  nbox=  4
     iter. #   101  RMS(g-h-1)= 1.454E-05  nbox= 10
     iter. #   111  RMS(g-h-1)= 1.392E-05  nbox=  8
     iter. #   121  RMS(g-h-1)= 1.311E-05  nbox=  2
     iter. #   131  RMS(g-h-1)= 1.211E-05  nbox= 10
     iter. #   141  RMS(g-h-1)= 1.062E-05  nbox=  6
     iter. #   151  RMS(g-h-1)= 1.020E-05  nbox= 10
     iter. #   159  RMS(g-h-1)= 9.968E-06  nbox=  8

     End of Laue-RISM calculation


     convergence has been achieved in   159 iterations


     solvent charge   -0.10022, renormalised to   -0.10000

     Total number of solvent (in expand-cell)
     H2O            8.556161
     Na+            0.706085
     Cl-            0.806212

     Total charge of solvent (in expand-cell)
     H2O           -0.000091 e
     Na+            0.706085 e
     Cl-           -0.806212 e
     Total         -0.100218 e

     Chemical potential of solvation (in expand-cell)
     H2O        GaussFluct   0.922568E+01 kcal/mol
     Na+        GaussFluct  -0.417800E+03 kcal/mol
     Cl-        GaussFluct   0.422897E+03 kcal/mol
     Total      GaussFluct   0.143226E+02 kcal/mol


     total cpu time spent up to now is      328.0 secs

     End of self-consistent calculation

          k = 0.0000 0.0000 0.0000 (  2565 PWs)   bands (ev):

   -15.5728 -13.8090 -11.4077  -8.2126  -4.6535  -2.3906  -1.6143  -0.6176

          k = 0.0000-0.5774 0.0000 (  2480 PWs)   bands (ev):

    -9.7151  -9.6458  -8.2183  -7.6867  -5.6434  -5.4231  -2.5729  -2.5154

     the Fermi energy is    -5.6236 ev

!    total energy              =     -37.32384727 Ry
     Harris-Foulkes estimate   =     -37.32369320 Ry
     estimated scf accuracy    <       0.00000099 Ry

     The total energy is the sum of the following terms:

     one-electron contribution =     179.99924395 Ry
     hartree contribution      =     -87.59269137 Ry
     xc contribution           =     -29.88800142 Ry
     ewald contribution        =     -99.88691462 Ry
     solvation energy (RISM)   =       0.04567966 Ry
     level-shifting contrib.   =       0.00346230 Ry
     smearing contrib. (-TS)   =      -0.00462577 Ry

     convergence has been achieved in  21 iterations

     Writing output data file Al-NaCl_aq.save

     init_run     :      5.00s CPU      8.64s WALL (       1 calls)
     electrons    :    115.17s CPU    216.92s WALL (       1 calls)

     Called by init_run:
     wfcinit      :      0.02s CPU      0.02s WALL (       1 calls)
     potinit      :      4.78s CPU      8.41s WALL (       1 calls)

     Called by electrons:
     c_bands      :      0.77s CPU      0.92s WALL (      21 calls)
     sum_band     :      0.31s CPU      0.34s WALL (      21 calls)
     v_of_rho     :      0.42s CPU      0.44s WALL (      22 calls)
     newd         :      0.13s CPU      0.15s WALL (      22 calls)
     mix_rho      :      0.06s CPU      0.06s WALL (      21 calls)

     Called by c_bands:
     init_us_2    :      0.01s CPU      0.01s WALL (      86 calls)
     cegterg      :      0.76s CPU      0.90s WALL (      42 calls)

     Called by sum_band:
     sum_band:bec :      0.00s CPU      0.00s WALL (      42 calls)
     addusdens    :      0.14s CPU      0.16s WALL (      21 calls)

     Called by *egterg:
     h_psi        :      0.53s CPU      0.58s WALL (     272 calls)
     s_psi        :      0.02s CPU      0.04s WALL (     272 calls)
     g_psi        :      0.00s CPU      0.00s WALL (     228 calls)
     cdiaghg      :      0.08s CPU      0.11s WALL (     270 calls)

     Called by h_psi:
     h_psi:pot    :      0.53s CPU      0.58s WALL (     272 calls)
     h_psi:calbec :      0.03s CPU      0.04s WALL (     272 calls)
     vloc_psi     :      0.48s CPU      0.50s WALL (     272 calls)
     add_vuspsi   :      0.02s CPU      0.04s WALL (     272 calls)

     General routines
     calbec       :      0.03s CPU      0.05s WALL (     314 calls)
     fft          :      0.27s CPU      0.28s WALL (     415 calls)
     ffts         :      0.01s CPU      0.01s WALL (      43 calls)
     fftw         :      0.50s CPU      0.51s WALL (    2612 calls)
     fftc         :      0.01s CPU      0.01s WALL (      44 calls)
     interpolate  :      0.04s CPU      0.05s WALL (      43 calls)
     davcio       :      0.00s CPU      0.00s WALL (       2 calls)

     Parallel routines
     fft_scatter  :      1.57s CPU      1.62s WALL (   24180 calls)

     RISM routines
     1DRISM_pre   :      0.00s CPU      0.00s WALL (       1 calls)
     1DRISM_run   :     47.43s CPU    102.11s WALL (       1 calls)
     3DRISM_pre   :      0.64s CPU      0.55s WALL (       1 calls)
     3DRISM_run   :    117.48s CPU    222.72s WALL (      22 calls)
     3DRISM_vsol  :      0.02s CPU      0.02s WALL (      22 calls)

     PWSCF        :  2m47.97s CPU     5m28.12s WALL


   This run was terminated on:  19: 2: 4  15Apr2021            

=------------------------------------------------------------------------------=
   JOB DONE.
=------------------------------------------------------------------------------=
