
     Program PWSCF v.6.1 starts on 15Apr2021 at 19: 2: 5 

     This program is part of the open-source Quantum ESPRESSO suite
     for quantum simulation of materials; please cite
         "P. Giannozzi et al., J. Phys.:Condens. Matter 21 395502 (2009);
          URL http://www.quantum-espresso.org", 
     in publications or presentations arising from this work. More details at
     http://www.quantum-espresso.org/quote

     Parallel version (MPI), running on     4 processors
     R & G space division:  proc/nbgrp/npool/nimage =       4
     Waiting for input...
     Reading input from standard input

     Current dimensions of program PWSCF are:
     Max number of different atomic species (ntypx) = 10
     Max number of k-points (npk) =  40000
     Max angular momentum in pseudopotentials (lmaxx) =  3
     Message from routine iosys_1drism:
     default density from MOL file(H2O.spc.MOL) is used

     gamma-point specific algorithms are used

     Subspace diagonalization in iterative solution of the eigenvalue problem:
     a serial algorithm will be used


     Molecule # 1 for H2O read from file:
     /Users/otani/Program/q-e/pseudo/H2O.spc.MOL
     Density:
         0.33427032E+02 cell^-1
         0.49533750E-02 bohr^-3
         0.55506881E+02 mol/L
         0.99997200E+00 g/cm^3
     Number of atoms:   3
     Atoms:
       #  atom      X (angs)      Y (angs)      Z (angs)      Q (e)         E (kcal/mol)  S (angs)
       1  O/h2o     0.00000000    0.00000000    0.00000000   -0.82000000    0.15540000    3.16600000
       2  H/h2o     0.81649000    0.57736000    0.00000000    0.41000000    0.04600000    1.00000000
       3  H/h2o    -0.81649000    0.57736000    0.00000000    0.41000000    0.04600000    1.00000000


     Molecule # 2 for Na+ read from file:
     /Users/otani/Program/q-e/pseudo/Na+.aq.MOL
     Density:
         0.60221420E+00 cell^-1
         0.89238936E-04 bohr^-3
         0.10000000E+01 mol/L
         0.22989770E-01 g/cm^3
     Number of atoms:   1
     Atoms:
       #  atom      X (angs)      Y (angs)      Z (angs)      Q (e)         E (kcal/mol)  S (angs)
       1  Na        0.00000000    0.00000000    0.00000000    1.00000000    0.13010000    2.35000000


     Molecule # 3 for Cl- read from file:
     /Users/otani/Program/q-e/pseudo/Cl-.aq.MOL
     Density:
         0.60221420E+00 cell^-1
         0.89238936E-04 bohr^-3
         0.10000000E+01 mol/L
         0.35452700E-01 g/cm^3
     Number of atoms:   1
     Atoms:
       #  atom      X (angs)      Y (angs)      Z (angs)      Q (e)         E (kcal/mol)  S (angs)
       1  Cl        0.00000000    0.00000000    0.00000000   -1.00000000    0.10010000    4.40000000


     1D-RISM info
     ------------
     closure equation        =           KH
     temperature             =     300.0000  kelvin
     coulomb smearing radius =       2.0000  bohr
     number of solvent sites =            5
     number of grids         =         5008
     maximum of R-space      =     999.8003  bohr
     maximum of G-space      =      15.7315  bohr^-1
     number of iterations    =        50000
     convergence threshold   =      1.0E-08
     Gaussian width of bonds =       0.4000  bohr
     size of MDIIS           =           20
     step of MDIIS           =       0.5000
     number of processes     =            4


     1D-RISM Calculation

     iter. #     1  RMS(g-h-1)= 2.965E-04  nbox=  0  T= 2400.00K
     iter. #   101  RMS(g-h-1)= 2.151E-05  nbox= 12  T=  711.11K
     iter. #   201  RMS(g-h-1)= 2.550E-05  nbox=  1  T=  316.05K
     iter. #   301  RMS(g-h-1)= 2.012E-07  nbox= 20  T=  300.00K
     iter. #   401  RMS(g-h-1)= 1.020E-07  nbox= 20  T=  300.00K
     iter. #   501  RMS(g-h-1)= 6.892E-08  nbox= 20  T=  300.00K
     iter. #   601  RMS(g-h-1)= 4.912E-08  nbox= 20  T=  300.00K
     iter. #   701  RMS(g-h-1)= 4.162E-08  nbox= 20  T=  300.00K
     iter. #   801  RMS(g-h-1)= 3.620E-08  nbox= 20  T=  300.00K
     iter. #   901  RMS(g-h-1)= 3.074E-08  nbox= 20  T=  300.00K
     iter. #  1001  RMS(g-h-1)= 2.797E-08  nbox= 20  T=  300.00K
     iter. #  1101  RMS(g-h-1)= 2.497E-08  nbox= 20  T=  300.00K
     iter. #  1201  RMS(g-h-1)= 2.098E-08  nbox= 20  T=  300.00K
     iter. #  1301  RMS(g-h-1)= 1.968E-08  nbox= 20  T=  300.00K
     iter. #  1401  RMS(g-h-1)= 1.857E-08  nbox= 20  T=  300.00K
     iter. #  1501  RMS(g-h-1)= 1.802E-08  nbox= 20  T=  300.00K
     iter. #  1601  RMS(g-h-1)= 1.616E-08  nbox= 20  T=  300.00K
     iter. #  1701  RMS(g-h-1)= 1.343E-08  nbox= 20  T=  300.00K
     iter. #  1801  RMS(g-h-1)= 1.114E-08  nbox= 20  T=  300.00K
     iter. #  1832  RMS(g-h-1)= 9.993E-09  nbox= 20  T=  300.00K

     End of 1D-RISM calculation


     convergence has been achieved in  1832 iterations


     Chemical potential of solvation

     H2O        H2O        Closure      0.139574E+01 kcal/mol
                           GaussFluct  -0.193645E+01 kcal/mol

                Na+        Closure     -0.631605E+00 kcal/mol
                           GaussFluct  -0.669146E+00 kcal/mol

                Cl-        Closure     -0.502197E+00 kcal/mol
                           GaussFluct  -0.547301E+00 kcal/mol

                Total      Closure      0.261940E+00 kcal/mol
                           GaussFluct  -0.315290E+01 kcal/mol

     Na+        H2O        Closure     -0.350584E+02 kcal/mol
                           GaussFluct  -0.371422E+02 kcal/mol

                Na+        Closure      0.351526E+06 kcal/mol
                           GaussFluct   0.351526E+06 kcal/mol

                Cl-        Closure     -0.351571E+06 kcal/mol
                           GaussFluct  -0.351571E+06 kcal/mol

                Total      Closure     -0.802020E+02 kcal/mol
                           GaussFluct  -0.823595E+02 kcal/mol

     Cl-        H2O        Closure     -0.278754E+02 kcal/mol
                           GaussFluct  -0.303790E+02 kcal/mol

                Na+        Closure     -0.351571E+06 kcal/mol
                           GaussFluct  -0.351571E+06 kcal/mol

                Cl-        Closure      0.351527E+06 kcal/mol
                           GaussFluct   0.351527E+06 kcal/mol

                Total      Closure     -0.724801E+02 kcal/mol
                           GaussFluct  -0.750645E+02 kcal/mol


     Parallelization info
     --------------------
     sticks:   dense  smooth     PW     G-vecs:    dense   smooth      PW
     Min        1595     710    178                96144    28450    3560
     Max        1598     714    180                96150    28451    3562
     Sum        6385    2845    717               384587   113801   14243



     bravais-lattice index     =            0
     lattice parameter (alat)  =      18.8973  a.u.
     unit-cell volume          =    6748.3346 (a.u.)^3
     number of atoms/cell      =            1
     number of atomic types    =            1
     number of electrons       =         8.00
     number of Kohn-Sham states=            8
     kinetic-energy cutoff     =      25.0000  Ry
     charge density cutoff     =     225.0000  Ry
     convergence threshold     =      1.0E-06
     mixing beta               =       0.2000
     number of iterations used =            8  plain     mixing
     Exchange-correlation      =  SLA  PW   PBE  PBE ( 1  4  3  4 0 0)

     Effective Screening Medium Method
     =================================
     Boundary Conditions: Vacuum-Slab-Vacuum
     total charge in unit cell        =  -1.0000
     grid points for fit at edges     =        4 


     celldm(1)=  18.897261  celldm(2)=   0.000000  celldm(3)=   0.000000
     celldm(4)=   0.000000  celldm(5)=   0.000000  celldm(6)=   0.000000

     crystal axes: (cart. coord. in units of alat)
               a(1) = (   1.000000   0.000000   0.000000 )  
               a(2) = (   0.000000   1.000000   0.000000 )  
               a(3) = (   0.000000   0.000000   1.000000 )  

     reciprocal axes: (cart. coord. in units 2 pi/alat)
               b(1) = (  1.000000  0.000000  0.000000 )  
               b(2) = (  0.000000  1.000000  0.000000 )  
               b(3) = (  0.000000  0.000000  1.000000 )  


     PseudoPot. # 1 for Cl read from file:
     /Users/otani/Program/q-e/pseudo/Cl.pbe-n-van.UPF
     MD5 check sum: b4189aaf119dcb748bbe99508aaca0da
     Pseudo is Ultrasoft + core correction, Zval =  7.0
     Generated by new atomic code, or converted to UPF format
     Using radial grid of  909 points,  4 beta functions with: 
                l(1) =   0
                l(2) =   0
                l(3) =   1
                l(4) =   1
     Q(r) pseudized with  8 coefficients,  rinner =    0.900   0.900   0.900


     atomic species   valence    mass     pseudopotential
        Cl             7.00    35.45270     Cl( 1.00)

     48 Sym. Ops., with inversion, found (32 have fractional translation)



   Cartesian axes

     site n.     atom                  positions (alat units)
         1           Cl  tau(   1) = (   0.5000000   0.5000000   0.0000000  )

     number of k points=     1  gaussian smearing, width (Ry)=  0.0100
                       cart. coord. in units 2pi/alat
        k(    1) = (   0.0000000   0.0000000   0.0000000), wk =   2.0000000

     Dense  grid:   192294 G-vectors     FFT dimensions: (  96,  96,  96)

     Smooth grid:    56901 G-vectors     FFT dimensions: (  64,  64,  64)

     Estimated max dynamical RAM per process >      36.37MB

     Estimated total allocated dynamical RAM >     145.49MB

     Solute:
       # atom     E (kcal/mol)  S (angs)
       1  Cl      0.22700000    3.51637724    UFF


     Laue-RISM info
     --------------
     closure equation        =           KH
     temperature             =     300.0000  kelvin
     coulomb smearing radius =       2.0000  bohr
     number of solvent sites =            4
     solvent sites           =    O/h2o   H/h2o      Na      Cl
     number of iterations    =         5000
     convergence threshold   =      1.0E-05
     convergence level       =       0.1000
     size of MDIIS           =           10
     step of MDIIS           =       0.8000
     solvent cutoff          =     100.0000  Ry
     Custom grid:    56901 G-vectors     FFT dimensions: (  64,  64,  64)

     Boundary Conditions        : Solvent-Slab-Solvent
     unit-cell (in bohr)        : [  -9.448631   9.448631]
     expand-cell (in bohr)      : [ -59.939751  59.644481]
     solvent of left (in bohr)  : [ -59.939751   0.000000]
     solvent of right (in bohr) : [   0.000000  59.644481]
     reference of potential     : average of both sides
     #grids to fit at edges of unit-cell =    4
     Laue grid:     1423 Gxy-vectors     FFT dimensions: (  64,  64, 405)


     Initial potential from superposition of free atoms
     Check: negative starting charge=   -0.006512

     starting charge    6.99999, renormalised to    8.00000

     negative rho (up, down):  7.443E-03 0.000E+00

     Laue-RISM Calculation

     convergence threshold    = 5.012E-03
     iter. #     1  RMS(g-h-1)= 2.310E+00  nbox=  0
     iter. #    11  RMS(g-h-1)= 1.145E-01  nbox= 10
     iter. #    21  RMS(g-h-1)= 4.669E-02  nbox= 10
     iter. #    31  RMS(g-h-1)= 1.537E-02  nbox= 10
     iter. #    41  RMS(g-h-1)= 8.792E-03  nbox= 10
     iter. #    44  RMS(g-h-1)= 4.883E-03  nbox= 10

     End of Laue-RISM calculation


     convergence has been achieved in    44 iterations


     solvent charge    1.28304, renormalised to    1.00000

     Total number of solvent (in expand-cell)
     H2O          210.250121
     Na+            4.872245
     Cl-            3.536937

     Total charge of solvent (in expand-cell)
     H2O           -0.052264 e
     Na+            4.872245 e
     Cl-           -3.536937 e
     Total          1.283044 e

     Chemical potential of solvation (in expand-cell)
     H2O        GaussFluct  -0.479518E+02 kcal/mol
     Na+        GaussFluct   0.127720E+04 kcal/mol
     Cl-        GaussFluct  -0.125948E+04 kcal/mol
     Total      GaussFluct  -0.302306E+02 kcal/mol

     Starting wfc are    4 randomized atomic wfcs +    4 random wfc

     total cpu time spent up to now is      186.3 secs

     Self-consistent Calculation

     iteration #  1     ecut=    25.00 Ry     beta=0.20
     Davidson diagonalization with overlap
     ethr =  1.00E-02,  avg # of iterations =  6.0

     negative rho (up, down):  6.099E-03 0.000E+00

     Laue-RISM Calculation

     convergence threshold    = 5.012E-03
     iter. #     1  RMS(g-h-1)= 1.052E-01  nbox=  0
     iter. #    11  RMS(g-h-1)= 8.762E-03  nbox= 10
     iter. #    19  RMS(g-h-1)= 4.473E-03  nbox= 10

     End of Laue-RISM calculation


     convergence has been achieved in    19 iterations


     solvent charge    1.38637, renormalised to    1.00000

     Total number of solvent (in expand-cell)
     H2O          210.365975
     Na+            4.924860
     Cl-            3.528818

     Total charge of solvent (in expand-cell)
     H2O           -0.009670 e
     Na+            4.924860 e
     Cl-           -3.528818 e
     Total          1.386371 e

     Chemical potential of solvation (in expand-cell)
     H2O        GaussFluct  -0.483337E+02 kcal/mol
     Na+        GaussFluct   0.127790E+04 kcal/mol
     Cl-        GaussFluct  -0.125613E+04 kcal/mol
     Total      GaussFluct  -0.265668E+02 kcal/mol


     total cpu time spent up to now is      197.8 secs

     total energy              =     -32.46094171 Ry
     Harris-Foulkes estimate   =     -32.60915332 Ry
     estimated scf accuracy    <       0.52607308 Ry

     iteration #  2     ecut=    25.00 Ry     beta=0.20
     Davidson diagonalization with overlap
     ethr =  6.58E-03,  avg # of iterations =  1.0

     negative rho (up, down):  5.737E-03 0.000E+00

     Laue-RISM Calculation

     convergence threshold    = 5.012E-03
     iter. #     1  RMS(g-h-1)= 1.158E-01  nbox=  0
     iter. #    11  RMS(g-h-1)= 1.110E-02  nbox= 10
     iter. #    21  RMS(g-h-1)= 4.988E-03  nbox= 10

     End of Laue-RISM calculation


     convergence has been achieved in    21 iterations


     solvent charge    1.41900, renormalised to    1.00000

     Total number of solvent (in expand-cell)
     H2O          210.240445
     Na+            4.983234
     Cl-            3.539056

     Total charge of solvent (in expand-cell)
     H2O           -0.025179 e
     Na+            4.983234 e
     Cl-           -3.539056 e
     Total          1.418999 e

     Chemical potential of solvation (in expand-cell)
     H2O        GaussFluct  -0.447371E+02 kcal/mol
     Na+        GaussFluct   0.127845E+04 kcal/mol
     Cl-        GaussFluct  -0.125722E+04 kcal/mol
     Total      GaussFluct  -0.235086E+02 kcal/mol


     total cpu time spent up to now is      210.0 secs

     total energy              =     -32.41261723 Ry
     Harris-Foulkes estimate   =     -32.48613303 Ry
     estimated scf accuracy    <       0.14612848 Ry

     iteration #  3     ecut=    25.00 Ry     beta=0.20
     Davidson diagonalization with overlap
     ethr =  1.83E-03,  avg # of iterations =  2.0

     negative rho (up, down):  5.680E-03 0.000E+00

     Laue-RISM Calculation

     convergence threshold    = 1.986E-05
     iter. #     1  RMS(g-h-1)= 1.083E-02  nbox=  0
     iter. #    11  RMS(g-h-1)= 2.505E-03  nbox= 10
     iter. #    21  RMS(g-h-1)= 7.587E-04  nbox= 10
     iter. #    31  RMS(g-h-1)= 3.276E-04  nbox= 10
     iter. #    41  RMS(g-h-1)= 2.139E-04  nbox= 10
     iter. #    51  RMS(g-h-1)= 1.688E-04  nbox= 10
     iter. #    61  RMS(g-h-1)= 1.268E-04  nbox= 10
     iter. #    71  RMS(g-h-1)= 1.117E-04  nbox=  5
     iter. #    81  RMS(g-h-1)= 9.937E-05  nbox= 10
     iter. #    91  RMS(g-h-1)= 8.664E-05  nbox=  9
     iter. #   101  RMS(g-h-1)= 8.137E-05  nbox=  3
     iter. #   111  RMS(g-h-1)= 7.464E-05  nbox= 10
     iter. #   121  RMS(g-h-1)= 6.961E-05  nbox=  7
     iter. #   131  RMS(g-h-1)= 6.412E-05  nbox= 10
     iter. #   141  RMS(g-h-1)= 5.873E-05  nbox= 10
     iter. #   151  RMS(g-h-1)= 5.613E-05  nbox=  5
     iter. #   161  RMS(g-h-1)= 5.277E-05  nbox= 10
     iter. #   171  RMS(g-h-1)= 5.228E-05  nbox=  9
     iter. #   181  RMS(g-h-1)= 4.699E-05  nbox=  3
     iter. #   191  RMS(g-h-1)= 4.516E-05  nbox= 10
     iter. #   201  RMS(g-h-1)= 4.268E-05  nbox=  7
     iter. #   211  RMS(g-h-1)= 4.103E-05  nbox= 10
     iter. #   221  RMS(g-h-1)= 3.936E-05  nbox= 10
     iter. #   231  RMS(g-h-1)= 3.788E-05  nbox=  5
     iter. #   241  RMS(g-h-1)= 3.691E-05  nbox= 10
     iter. #   251  RMS(g-h-1)= 3.564E-05  nbox=  9
     iter. #   261  RMS(g-h-1)= 3.350E-05  nbox=  3
     iter. #   271  RMS(g-h-1)= 3.195E-05  nbox= 10
     iter. #   281  RMS(g-h-1)= 3.146E-05  nbox=  7
     iter. #   291  RMS(g-h-1)= 3.033E-05  nbox= 10
     iter. #   301  RMS(g-h-1)= 2.920E-05  nbox= 10
     iter. #   311  RMS(g-h-1)= 2.833E-05  nbox=  5
     iter. #   321  RMS(g-h-1)= 2.771E-05  nbox= 10
     iter. #   331  RMS(g-h-1)= 2.720E-05  nbox=  9
     iter. #   341  RMS(g-h-1)= 2.619E-05  nbox=  3
     iter. #   351  RMS(g-h-1)= 2.544E-05  nbox= 10
     iter. #   361  RMS(g-h-1)= 2.501E-05  nbox=  7
     iter. #   371  RMS(g-h-1)= 2.433E-05  nbox= 10
     iter. #   381  RMS(g-h-1)= 2.358E-05  nbox= 10
     iter. #   391  RMS(g-h-1)= 2.276E-05  nbox=  5
     iter. #   401  RMS(g-h-1)= 2.216E-05  nbox= 10
     iter. #   411  RMS(g-h-1)= 2.179E-05  nbox=  9
     iter. #   421  RMS(g-h-1)= 2.146E-05  nbox=  3
     iter. #   431  RMS(g-h-1)= 2.108E-05  nbox= 10
     iter. #   441  RMS(g-h-1)= 2.080E-05  nbox=  7
     iter. #   451  RMS(g-h-1)= 2.041E-05  nbox= 10
     iter. #   460  RMS(g-h-1)= 1.986E-05  nbox= 10

     End of Laue-RISM calculation


     convergence has been achieved in   460 iterations


     solvent charge    1.00001, renormalised to    1.00000

     Total number of solvent (in expand-cell)
     H2O          210.656086
     Na+            4.629997
     Cl-            3.629988

     Total charge of solvent (in expand-cell)
     H2O            0.000000 e
     Na+            4.629997 e
     Cl-           -3.629988 e
     Total          1.000009 e

     Chemical potential of solvation (in expand-cell)
     H2O        GaussFluct  -0.339162E+02 kcal/mol
     Na+        GaussFluct   0.126878E+04 kcal/mol
     Cl-        GaussFluct  -0.125815E+04 kcal/mol
     Total      GaussFluct  -0.232823E+02 kcal/mol


     total cpu time spent up to now is      444.6 secs

     total energy              =     -32.44311419 Ry
     Harris-Foulkes estimate   =     -32.44725817 Ry
     estimated scf accuracy    <       0.00073924 Ry

     iteration #  4     ecut=    25.00 Ry     beta=0.20
     Davidson diagonalization with overlap
     ethr =  9.24E-06,  avg # of iterations = 12.0

     negative rho (up, down):  5.617E-03 0.000E+00

     Laue-RISM Calculation

     convergence threshold    = 1.000E-05
     iter. #     1  RMS(g-h-1)= 3.736E-03  nbox=  0
     iter. #    11  RMS(g-h-1)= 2.319E-04  nbox= 10
     iter. #    21  RMS(g-h-1)= 8.139E-05  nbox= 10
     iter. #    31  RMS(g-h-1)= 4.002E-05  nbox= 10
     iter. #    41  RMS(g-h-1)= 2.251E-05  nbox= 10
     iter. #    51  RMS(g-h-1)= 1.969E-05  nbox= 10
     iter. #    61  RMS(g-h-1)= 1.941E-05  nbox=  5
     iter. #    71  RMS(g-h-1)= 1.921E-05  nbox= 10
     iter. #    81  RMS(g-h-1)= 1.905E-05  nbox=  9
     iter. #    91  RMS(g-h-1)= 1.887E-05  nbox=  3
     iter. #   101  RMS(g-h-1)= 1.850E-05  nbox= 10
     iter. #   111  RMS(g-h-1)= 1.818E-05  nbox=  7
     iter. #   121  RMS(g-h-1)= 1.758E-05  nbox= 10
     iter. #   131  RMS(g-h-1)= 1.731E-05  nbox= 10
     iter. #   141  RMS(g-h-1)= 1.718E-05  nbox=  5
     iter. #   151  RMS(g-h-1)= 1.702E-05  nbox= 10
     iter. #   161  RMS(g-h-1)= 1.685E-05  nbox=  9
     iter. #   171  RMS(g-h-1)= 1.671E-05  nbox=  3
     iter. #   181  RMS(g-h-1)= 1.653E-05  nbox= 10
     iter. #   191  RMS(g-h-1)= 1.635E-05  nbox=  7
     iter. #   201  RMS(g-h-1)= 1.605E-05  nbox= 10
     iter. #   211  RMS(g-h-1)= 1.568E-05  nbox= 10
     iter. #   221  RMS(g-h-1)= 1.547E-05  nbox=  5
     iter. #   231  RMS(g-h-1)= 1.519E-05  nbox= 10
     iter. #   241  RMS(g-h-1)= 1.482E-05  nbox=  9
     iter. #   251  RMS(g-h-1)= 1.448E-05  nbox=  3
     iter. #   261  RMS(g-h-1)= 1.398E-05  nbox= 10
     iter. #   271  RMS(g-h-1)= 1.374E-05  nbox=  7
     iter. #   281  RMS(g-h-1)= 1.356E-05  nbox= 10
     iter. #   291  RMS(g-h-1)= 1.344E-05  nbox= 10
     iter. #   301  RMS(g-h-1)= 1.337E-05  nbox=  5
     iter. #   311  RMS(g-h-1)= 1.327E-05  nbox= 10
     iter. #   321  RMS(g-h-1)= 1.315E-05  nbox=  9
     iter. #   331  RMS(g-h-1)= 1.300E-05  nbox=  3
     iter. #   341  RMS(g-h-1)= 1.272E-05  nbox= 10
     iter. #   351  RMS(g-h-1)= 1.252E-05  nbox=  7
     iter. #   361  RMS(g-h-1)= 1.242E-05  nbox= 10
     iter. #   371  RMS(g-h-1)= 1.236E-05  nbox= 10
     iter. #   381  RMS(g-h-1)= 1.230E-05  nbox=  5
     iter. #   391  RMS(g-h-1)= 1.222E-05  nbox= 10
     iter. #   401  RMS(g-h-1)= 1.214E-05  nbox=  9
     iter. #   411  RMS(g-h-1)= 1.208E-05  nbox=  3
     iter. #   421  RMS(g-h-1)= 1.196E-05  nbox= 10
     iter. #   431  RMS(g-h-1)= 1.176E-05  nbox=  7
     iter. #   441  RMS(g-h-1)= 1.140E-05  nbox= 10
     iter. #   451  RMS(g-h-1)= 1.100E-05  nbox= 10
     iter. #   461  RMS(g-h-1)= 1.078E-05  nbox=  5
     iter. #   471  RMS(g-h-1)= 1.052E-05  nbox= 10
     iter. #   481  RMS(g-h-1)= 1.041E-05  nbox=  9
     iter. #   491  RMS(g-h-1)= 1.031E-05  nbox=  3
     iter. #   501  RMS(g-h-1)= 1.003E-05  nbox= 10
     iter. #   503  RMS(g-h-1)= 9.988E-06  nbox= 10

     End of Laue-RISM calculation


     convergence has been achieved in   503 iterations


     solvent charge    1.00000, renormalised to    1.00000

     Total number of solvent (in expand-cell)
     H2O          210.657959
     Na+            4.629628
     Cl-            3.629629

     Total charge of solvent (in expand-cell)
     H2O           -0.000001 e
     Na+            4.629628 e
     Cl-           -3.629629 e
     Total          0.999999 e

     Chemical potential of solvation (in expand-cell)
     H2O        GaussFluct  -0.340306E+02 kcal/mol
     Na+        GaussFluct   0.126878E+04 kcal/mol
     Cl-        GaussFluct  -0.125813E+04 kcal/mol
     Total      GaussFluct  -0.233787E+02 kcal/mol


     total cpu time spent up to now is      701.7 secs

     total energy              =     -32.44370444 Ry
     Harris-Foulkes estimate   =     -32.44378344 Ry
     estimated scf accuracy    <       0.00019772 Ry

     iteration #  5     ecut=    25.00 Ry     beta=0.20
     Davidson diagonalization with overlap
     ethr =  2.47E-06,  avg # of iterations = 11.0

     negative rho (up, down):  5.689E-03 0.000E+00

     Laue-RISM Calculation

     convergence threshold    = 1.000E-05
     iter. #     1  RMS(g-h-1)= 4.307E-03  nbox=  0
     iter. #    11  RMS(g-h-1)= 1.629E-04  nbox= 10
     iter. #    21  RMS(g-h-1)= 7.914E-05  nbox= 10
     iter. #    31  RMS(g-h-1)= 4.136E-05  nbox= 10
     iter. #    41  RMS(g-h-1)= 2.904E-05  nbox= 10
     iter. #    51  RMS(g-h-1)= 2.052E-05  nbox= 10
     iter. #    61  RMS(g-h-1)= 1.716E-05  nbox= 10
     iter. #    71  RMS(g-h-1)= 1.476E-05  nbox=  5
     iter. #    81  RMS(g-h-1)= 1.266E-05  nbox= 10
     iter. #    91  RMS(g-h-1)= 1.211E-05  nbox=  9
     iter. #   101  RMS(g-h-1)= 1.145E-05  nbox=  3
     iter. #   111  RMS(g-h-1)= 1.099E-05  nbox= 10
     iter. #   121  RMS(g-h-1)= 1.069E-05  nbox=  7
     iter. #   131  RMS(g-h-1)= 1.049E-05  nbox= 10
     iter. #   141  RMS(g-h-1)= 1.040E-05  nbox= 10
     iter. #   151  RMS(g-h-1)= 1.032E-05  nbox=  5
     iter. #   161  RMS(g-h-1)= 1.021E-05  nbox= 10
     iter. #   171  RMS(g-h-1)= 1.013E-05  nbox=  9
     iter. #   181  RMS(g-h-1)= 1.006E-05  nbox=  3
     iter. #   186  RMS(g-h-1)= 9.990E-06  nbox=  8

     End of Laue-RISM calculation


     convergence has been achieved in   186 iterations


     solvent charge    0.99997, renormalised to    1.00000

     Total number of solvent (in expand-cell)
     H2O          210.669718
     Na+            4.627299
     Cl-            3.627330

     Total charge of solvent (in expand-cell)
     H2O            0.000004 e
     Na+            4.627299 e
     Cl-           -3.627330 e
     Total          0.999972 e

     Chemical potential of solvation (in expand-cell)
     H2O        GaussFluct  -0.347269E+02 kcal/mol
     Na+        GaussFluct   0.126881E+04 kcal/mol
     Cl-        GaussFluct  -0.125804E+04 kcal/mol
     Total      GaussFluct  -0.239575E+02 kcal/mol


     total cpu time spent up to now is      798.1 secs

     total energy              =     -32.44377580 Ry
     Harris-Foulkes estimate   =     -32.44373140 Ry
     estimated scf accuracy    <       0.00003115 Ry

     iteration #  6     ecut=    25.00 Ry     beta=0.20
     Davidson diagonalization with overlap
     ethr =  3.89E-07,  avg # of iterations =  2.0

     negative rho (up, down):  5.666E-03 0.000E+00

     Laue-RISM Calculation

     convergence threshold    = 1.000E-05
     iter. #     1  RMS(g-h-1)= 1.261E-03  nbox=  0
     iter. #    11  RMS(g-h-1)= 6.816E-05  nbox= 10
     iter. #    21  RMS(g-h-1)= 2.400E-05  nbox= 10
     iter. #    31  RMS(g-h-1)= 1.857E-05  nbox= 10
     iter. #    41  RMS(g-h-1)= 1.280E-05  nbox= 10
     iter. #    51  RMS(g-h-1)= 1.119E-05  nbox= 10
     iter. #    61  RMS(g-h-1)= 1.092E-05  nbox=  3
     iter. #    71  RMS(g-h-1)= 1.046E-05  nbox= 10
     iter. #    81  RMS(g-h-1)= 1.027E-05  nbox=  7
     iter. #    91  RMS(g-h-1)= 1.018E-05  nbox= 10
     iter. #   101  RMS(g-h-1)= 1.006E-05  nbox= 10
     iter. #   110  RMS(g-h-1)= 9.992E-06  nbox=  4

     End of Laue-RISM calculation


     convergence has been achieved in   110 iterations


     solvent charge    1.00001, renormalised to    1.00000

     Total number of solvent (in expand-cell)
     H2O          210.673019
     Na+            4.626669
     Cl-            3.626661

     Total charge of solvent (in expand-cell)
     H2O            0.000006 e
     Na+            4.626669 e
     Cl-           -3.626661 e
     Total          1.000014 e

     Chemical potential of solvation (in expand-cell)
     H2O        GaussFluct  -0.349323E+02 kcal/mol
     Na+        GaussFluct   0.126881E+04 kcal/mol
     Cl-        GaussFluct  -0.125801E+04 kcal/mol
     Total      GaussFluct  -0.241307E+02 kcal/mol


     total cpu time spent up to now is      855.0 secs

     total energy              =     -32.44379299 Ry
     Harris-Foulkes estimate   =     -32.44378340 Ry
     estimated scf accuracy    <       0.00000811 Ry

     iteration #  7     ecut=    25.00 Ry     beta=0.20
     Davidson diagonalization with overlap
     ethr =  1.01E-07,  avg # of iterations =  1.0

     negative rho (up, down):  5.647E-03 0.000E+00

     Laue-RISM Calculation

     convergence threshold    = 1.000E-05
     iter. #     1  RMS(g-h-1)= 1.692E-03  nbox=  0
     iter. #    11  RMS(g-h-1)= 1.012E-04  nbox= 10
     iter. #    21  RMS(g-h-1)= 2.625E-05  nbox= 10
     iter. #    31  RMS(g-h-1)= 2.123E-05  nbox= 10
     iter. #    41  RMS(g-h-1)= 1.541E-05  nbox= 10
     iter. #    51  RMS(g-h-1)= 1.250E-05  nbox= 10
     iter. #    61  RMS(g-h-1)= 1.189E-05  nbox=  3
     iter. #    71  RMS(g-h-1)= 1.097E-05  nbox= 10
     iter. #    81  RMS(g-h-1)= 1.072E-05  nbox=  7
     iter. #    91  RMS(g-h-1)= 1.049E-05  nbox= 10
     iter. #   101  RMS(g-h-1)= 1.028E-05  nbox= 10
     iter. #   111  RMS(g-h-1)= 1.018E-05  nbox=  5
     iter. #   121  RMS(g-h-1)= 1.002E-05  nbox= 10
     iter. #   125  RMS(g-h-1)= 9.987E-06  nbox=  3

     End of Laue-RISM calculation


     convergence has been achieved in   125 iterations


     solvent charge    0.99999, renormalised to    1.00000

     Total number of solvent (in expand-cell)
     H2O          210.675553
     Na+            4.626149
     Cl-            3.626156

     Total charge of solvent (in expand-cell)
     H2O           -0.000002 e
     Na+            4.626149 e
     Cl-           -3.626156 e
     Total          0.999991 e

     Chemical potential of solvation (in expand-cell)
     H2O        GaussFluct  -0.351132E+02 kcal/mol
     Na+        GaussFluct   0.126881E+04 kcal/mol
     Cl-        GaussFluct  -0.125799E+04 kcal/mol
     Total      GaussFluct  -0.242976E+02 kcal/mol


     total cpu time spent up to now is      919.1 secs

     total energy              =     -32.44380115 Ry
     Harris-Foulkes estimate   =     -32.44379347 Ry
     estimated scf accuracy    <       0.00000455 Ry

     iteration #  8     ecut=    25.00 Ry     beta=0.20
     Davidson diagonalization with overlap
     ethr =  5.69E-08,  avg # of iterations =  2.0

     negative rho (up, down):  5.607E-03 0.000E+00

     Laue-RISM Calculation

     convergence threshold    = 1.000E-05
     iter. #     1  RMS(g-h-1)= 1.580E-04  nbox=  0
     iter. #    11  RMS(g-h-1)= 1.245E-05  nbox= 10
     iter. #    21  RMS(g-h-1)= 1.014E-05  nbox= 10
     iter. #    27  RMS(g-h-1)= 9.999E-06  nbox= 10

     End of Laue-RISM calculation


     convergence has been achieved in    27 iterations


     solvent charge    1.00004, renormalised to    1.00000

     Total number of solvent (in expand-cell)
     H2O          210.675435
     Na+            4.626186
     Cl-            3.626180

     Total charge of solvent (in expand-cell)
     H2O            0.000036 e
     Na+            4.626186 e
     Cl-           -3.626180 e
     Total          1.000042 e

     Chemical potential of solvation (in expand-cell)
     H2O        GaussFluct  -0.351014E+02 kcal/mol
     Na+        GaussFluct   0.126881E+04 kcal/mol
     Cl-        GaussFluct  -0.125799E+04 kcal/mol
     Total      GaussFluct  -0.242857E+02 kcal/mol


     total cpu time spent up to now is      934.5 secs

     total energy              =     -32.44380211 Ry
     Harris-Foulkes estimate   =     -32.44380279 Ry
     estimated scf accuracy    <       0.00000138 Ry

     iteration #  9     ecut=    25.00 Ry     beta=0.20
     Davidson diagonalization with overlap
     ethr =  1.72E-08,  avg # of iterations =  1.0

     negative rho (up, down):  5.578E-03 0.000E+00

     Laue-RISM Calculation

     convergence threshold    = 1.000E-05
     iter. #     1  RMS(g-h-1)= 3.584E-04  nbox=  0
     iter. #    11  RMS(g-h-1)= 1.813E-05  nbox= 10
     iter. #    21  RMS(g-h-1)= 1.091E-05  nbox= 10
     iter. #    31  RMS(g-h-1)= 1.007E-05  nbox= 10
     iter. #    36  RMS(g-h-1)= 9.991E-06  nbox=  4

     End of Laue-RISM calculation


     convergence has been achieved in    36 iterations


     solvent charge    1.00013, renormalised to    1.00000

     Total number of solvent (in expand-cell)
     H2O          210.675324
     Na+            4.626269
     Cl-            3.626168

     Total charge of solvent (in expand-cell)
     H2O            0.000027 e
     Na+            4.626269 e
     Cl-           -3.626168 e
     Total          1.000127 e

     Chemical potential of solvation (in expand-cell)
     H2O        GaussFluct  -0.351087E+02 kcal/mol
     Na+        GaussFluct   0.126881E+04 kcal/mol
     Cl-        GaussFluct  -0.125799E+04 kcal/mol
     Total      GaussFluct  -0.242930E+02 kcal/mol


     total cpu time spent up to now is      954.1 secs

     total energy              =     -32.44380323 Ry
     Harris-Foulkes estimate   =     -32.44380213 Ry
     estimated scf accuracy    <       0.00000163 Ry

     iteration # 10     ecut=    25.00 Ry     beta=0.20
     Davidson diagonalization with overlap
     ethr =  1.72E-08,  avg # of iterations =  1.0

     negative rho (up, down):  5.545E-03 0.000E+00

     Laue-RISM Calculation

     convergence threshold    = 1.000E-05
     iter. #     1  RMS(g-h-1)= 1.937E-03  nbox=  0
     iter. #    11  RMS(g-h-1)= 9.399E-05  nbox= 10
     iter. #    21  RMS(g-h-1)= 2.705E-05  nbox= 10
     iter. #    31  RMS(g-h-1)= 1.686E-05  nbox= 10
     iter. #    41  RMS(g-h-1)= 1.375E-05  nbox= 10
     iter. #    51  RMS(g-h-1)= 1.151E-05  nbox=  7
     iter. #    61  RMS(g-h-1)= 1.087E-05  nbox= 10
     iter. #    71  RMS(g-h-1)= 1.043E-05  nbox= 10
     iter. #    81  RMS(g-h-1)= 1.020E-05  nbox=  5
     iter. #    91  RMS(g-h-1)= 1.002E-05  nbox= 10
     iter. #    95  RMS(g-h-1)= 9.992E-06  nbox=  3

     End of Laue-RISM calculation


     convergence has been achieved in    95 iterations


     solvent charge    1.00003, renormalised to    1.00000

     Total number of solvent (in expand-cell)
     H2O          210.674859
     Na+            4.626350
     Cl-            3.626336

     Total charge of solvent (in expand-cell)
     H2O            0.000012 e
     Na+            4.626350 e
     Cl-           -3.626336 e
     Total          1.000027 e

     Chemical potential of solvation (in expand-cell)
     H2O        GaussFluct  -0.351071E+02 kcal/mol
     Na+        GaussFluct   0.126880E+04 kcal/mol
     Cl-        GaussFluct  -0.125800E+04 kcal/mol
     Total      GaussFluct  -0.243147E+02 kcal/mol


     total cpu time spent up to now is     1003.1 secs

     total energy              =     -32.44380492 Ry
     Harris-Foulkes estimate   =     -32.44380330 Ry
     estimated scf accuracy    <       0.00000129 Ry

     iteration # 11     ecut=    25.00 Ry     beta=0.20
     Davidson diagonalization with overlap
     ethr =  1.61E-08,  avg # of iterations =  3.0

     negative rho (up, down):  5.484E-03 0.000E+00

     Laue-RISM Calculation

     convergence threshold    = 1.000E-05
     iter. #     1  RMS(g-h-1)= 2.989E-04  nbox=  0
     iter. #    11  RMS(g-h-1)= 2.129E-05  nbox= 10
     iter. #    21  RMS(g-h-1)= 1.217E-05  nbox= 10
     iter. #    31  RMS(g-h-1)= 1.033E-05  nbox= 10
     iter. #    41  RMS(g-h-1)= 1.005E-05  nbox= 10
     iter. #    43  RMS(g-h-1)= 9.991E-06  nbox=  3

     End of Laue-RISM calculation


     convergence has been achieved in    43 iterations


     solvent charge    0.99996, renormalised to    1.00000

     Total number of solvent (in expand-cell)
     H2O          210.674821
     Na+            4.626346
     Cl-            3.626349

     Total charge of solvent (in expand-cell)
     H2O           -0.000036 e
     Na+            4.626346 e
     Cl-           -3.626349 e
     Total          0.999961 e

     Chemical potential of solvation (in expand-cell)
     H2O        GaussFluct  -0.351103E+02 kcal/mol
     Na+        GaussFluct   0.126879E+04 kcal/mol
     Cl-        GaussFluct  -0.125800E+04 kcal/mol
     Total      GaussFluct  -0.243202E+02 kcal/mol


     total cpu time spent up to now is     1026.6 secs

     End of self-consistent calculation

          k = 0.0000 0.0000 0.0000 (  7122 PWs)   bands (ev):

   -19.1603  -7.6150  -7.5933  -7.5933  -1.2601   0.2623   0.5291   0.5309

     the Fermi energy is    -4.2558 ev

!    total energy              =     -32.44380615 Ry
     Harris-Foulkes estimate   =     -32.44380654 Ry
     estimated scf accuracy    <       0.00000026 Ry

     The total energy is the sum of the following terms:

     one-electron contribution =     -31.33759852 Ry
     hartree contribution      =      17.64800315 Ry
     xc contribution           =      -8.56338209 Ry
     ewald contribution        =     -10.11326339 Ry
     solvation energy (RISM)   =      -0.07756530 Ry
     smearing contrib. (-TS)   =      -0.00000000 Ry

     convergence has been achieved in  11 iterations

     Writing output data file Cl-_NaCl_aq.in.save

     init_run     :     14.93s CPU     25.68s WALL (       1 calls)
     electrons    :    416.62s CPU    840.37s WALL (       1 calls)

     Called by init_run:
     wfcinit      :      0.01s CPU      0.01s WALL (       1 calls)
     potinit      :     14.72s CPU     25.41s WALL (       1 calls)

     Called by electrons:
     c_bands      :      0.34s CPU      0.39s WALL (      11 calls)
     sum_band     :      0.86s CPU      0.86s WALL (      11 calls)
     v_of_rho     :      1.49s CPU      1.68s WALL (      12 calls)
     newd         :      0.47s CPU      0.61s WALL (      12 calls)
     mix_rho      :      0.19s CPU      0.22s WALL (      11 calls)

     Called by c_bands:
     init_us_2    :      0.01s CPU      0.01s WALL (      23 calls)
     regterg      :      0.33s CPU      0.38s WALL (      11 calls)

     Called by sum_band:
     sum_band:bec :      0.00s CPU      0.00s WALL (      11 calls)
     addusdens    :      0.52s CPU      0.49s WALL (      11 calls)

     Called by *egterg:
     h_psi        :      0.26s CPU      0.27s WALL (      54 calls)
     s_psi        :      0.00s CPU      0.00s WALL (      54 calls)
     g_psi        :      0.00s CPU      0.00s WALL (      42 calls)
     rdiaghg      :      0.03s CPU      0.05s WALL (      53 calls)

     Called by h_psi:
     h_psi:pot    :      0.26s CPU      0.27s WALL (      54 calls)
     h_psi:calbec :      0.01s CPU      0.01s WALL (      54 calls)
     vloc_psi     :      0.24s CPU      0.25s WALL (      54 calls)
     add_vuspsi   :      0.00s CPU      0.00s WALL (      54 calls)

     General routines
     calbec       :      0.01s CPU      0.01s WALL (      65 calls)
     fft          :      1.58s CPU      1.75s WALL (     225 calls)
     ffts         :      0.03s CPU      0.03s WALL (      23 calls)
     fftw         :      0.21s CPU      0.22s WALL (     336 calls)
     fftc         :      0.03s CPU      0.03s WALL (      24 calls)
     interpolate  :      0.22s CPU      0.28s WALL (      23 calls)
     davcio       :      0.00s CPU      0.00s WALL (       1 calls)

     Parallel routines
     fft_scatter  :      8.84s CPU      9.11s WALL (   14024 calls)

     RISM routines
     1DRISM_pre   :      0.00s CPU      0.00s WALL (       1 calls)
     1DRISM_run   :     74.30s CPU    160.20s WALL (       1 calls)
     3DRISM_pre   :      2.61s CPU      2.17s WALL (       1 calls)
     3DRISM_run   :    424.92s CPU    859.32s WALL (      12 calls)
     3DRISM_vsol  :      0.09s CPU      0.12s WALL (      12 calls)

     PWSCF        :  8m26.42s CPU    17m 7.03s WALL


   This run was terminated on:  19:19:12  15Apr2021            

=------------------------------------------------------------------------------=
   JOB DONE.
=------------------------------------------------------------------------------=
