
     Program PWSCF v.6.1 starts on 15Apr2021 at 18:49:17 

     This program is part of the open-source Quantum ESPRESSO suite
     for quantum simulation of materials; please cite
         "P. Giannozzi et al., J. Phys.:Condens. Matter 21 395502 (2009);
          URL http://www.quantum-espresso.org", 
     in publications or presentations arising from this work. More details at
     http://www.quantum-espresso.org/quote

     Parallel version (MPI), running on     4 processors
     R & G space division:  proc/nbgrp/npool/nimage =       4
     Waiting for input...
     Reading input from standard input

     Current dimensions of program PWSCF are:
     Max number of different atomic species (ntypx) = 10
     Max number of k-points (npk) =  40000
     Max angular momentum in pseudopotentials (lmaxx) =  3
     Message from routine iosys_1drism:
     default density from MOL file(H2O.spc.MOL) is used

     gamma-point specific algorithms are used

     Subspace diagonalization in iterative solution of the eigenvalue problem:
     a serial algorithm will be used


     Molecule # 1 for H2O read from file:
     /Users/otani/Program/q-e/pseudo/H2O.spc.MOL
     Density:
         0.33427032E+02 cell^-1
         0.49533750E-02 bohr^-3
         0.55506881E+02 mol/L
         0.99997200E+00 g/cm^3
     Number of atoms:   3
     Atoms:
       #  atom      X (angs)      Y (angs)      Z (angs)      Q (e)         E (kcal/mol)  S (angs)
       1  O/h2o     0.00000000    0.00000000    0.00000000   -0.82000000    0.15540000    3.16600000
       2  H/h2o     0.81649000    0.57736000    0.00000000    0.41000000    0.04600000    1.00000000
       3  H/h2o    -0.81649000    0.57736000    0.00000000    0.41000000    0.04600000    1.00000000


     Molecule # 2 for Na+ read from file:
     /Users/otani/Program/q-e/pseudo/Na+.aq.MOL
     Density:
         0.30110710E+00 cell^-1
         0.44619468E-04 bohr^-3
         0.50000000E+00 mol/L
         0.11494885E-01 g/cm^3
     Number of atoms:   1
     Atoms:
       #  atom      X (angs)      Y (angs)      Z (angs)      Q (e)         E (kcal/mol)  S (angs)
       1  Na        0.00000000    0.00000000    0.00000000    1.00000000    0.13010000    2.35000000


     Molecule # 3 for Cl- read from file:
     /Users/otani/Program/q-e/pseudo/Cl-.aq.MOL
     Density:
         0.30110710E+00 cell^-1
         0.44619468E-04 bohr^-3
         0.50000000E+00 mol/L
         0.17726350E-01 g/cm^3
     Number of atoms:   1
     Atoms:
       #  atom      X (angs)      Y (angs)      Z (angs)      Q (e)         E (kcal/mol)  S (angs)
       1  Cl        0.00000000    0.00000000    0.00000000   -1.00000000    0.10010000    4.40000000


     1D-RISM info
     ------------
     closure equation        =           KH
     temperature             =     300.0000  kelvin
     coulomb smearing radius =       2.0000  bohr
     number of solvent sites =            5
     number of grids         =         5008
     maximum of R-space      =     999.8003  bohr
     maximum of G-space      =      15.7315  bohr^-1
     number of iterations    =        10000
     convergence threshold   =      1.0E-08
     Gaussian width of bonds =       0.0000  bohr
     size of MDIIS           =           20
     step of MDIIS           =       0.5000
     number of processes     =            4


     1D-RISM Calculation

     iter. #     1  RMS(g-h-1)= 3.679E-04  nbox=  0  T= 2400.00K
     iter. #   101  RMS(g-h-1)= 1.700E-06  nbox= 12  T=  711.11K
     iter. #   201  RMS(g-h-1)= 2.238E-05  nbox=  2  T=  300.00K
     iter. #   236  RMS(g-h-1)= 7.639E-09  nbox= 20  T=  300.00K

     End of 1D-RISM calculation


     convergence has been achieved in   236 iterations


     Chemical potential of solvation

     H2O        H2O        Closure     -0.153586E+01 kcal/mol
                           GaussFluct  -0.503726E+01 kcal/mol

                Na+        Closure     -0.402293E+00 kcal/mol
                           GaussFluct  -0.422433E+00 kcal/mol

                Cl-        Closure     -0.353096E+00 kcal/mol
                           GaussFluct  -0.377574E+00 kcal/mol

                Total      Closure     -0.229125E+01 kcal/mol
                           GaussFluct  -0.583726E+01 kcal/mol

     Na+        H2O        Closure     -0.446601E+02 kcal/mol
                           GaussFluct  -0.468959E+02 kcal/mol

                Na+        Closure      0.175759E+06 kcal/mol
                           GaussFluct   0.175759E+06 kcal/mol

                Cl-        Closure     -0.175796E+06 kcal/mol
                           GaussFluct  -0.175796E+06 kcal/mol

                Total      Closure     -0.820461E+02 kcal/mol
                           GaussFluct  -0.843430E+02 kcal/mol

     Cl-        H2O        Closure     -0.391985E+02 kcal/mol
                           GaussFluct  -0.419159E+02 kcal/mol

                Na+        Closure     -0.175796E+06 kcal/mol
                           GaussFluct  -0.175796E+06 kcal/mol

                Cl-        Closure      0.175759E+06 kcal/mol
                           GaussFluct   0.175759E+06 kcal/mol

                Total      Closure     -0.764155E+02 kcal/mol
                           GaussFluct  -0.791953E+02 kcal/mol


     Parallelization info
     --------------------
     sticks:   dense  smooth     PW     G-vecs:    dense   smooth      PW
     Min        1595     710    178                96144    28450    3560
     Max        1598     714    180                96150    28451    3562
     Sum        6385    2845    717               384587   113801   14243



     bravais-lattice index     =            0
     lattice parameter (alat)  =      18.8973  a.u.
     unit-cell volume          =    6748.3346 (a.u.)^3
     number of atoms/cell      =            3
     number of atomic types    =            2
     number of electrons       =         8.00
     number of Kohn-Sham states=            4
     kinetic-energy cutoff     =      25.0000  Ry
     charge density cutoff     =     225.0000  Ry
     convergence threshold     =      1.0E-06
     mixing beta               =       0.4000
     number of iterations used =            8  plain     mixing
     Exchange-correlation      =  SLA  PW   PBE  PBE ( 1  4  3  4 0 0)

     celldm(1)=  18.897261  celldm(2)=   0.000000  celldm(3)=   0.000000
     celldm(4)=   0.000000  celldm(5)=   0.000000  celldm(6)=   0.000000

     crystal axes: (cart. coord. in units of alat)
               a(1) = (   1.000000   0.000000   0.000000 )  
               a(2) = (   0.000000   1.000000   0.000000 )  
               a(3) = (   0.000000   0.000000   1.000000 )  

     reciprocal axes: (cart. coord. in units 2 pi/alat)
               b(1) = (  1.000000  0.000000  0.000000 )  
               b(2) = (  0.000000  1.000000  0.000000 )  
               b(3) = (  0.000000  0.000000  1.000000 )  


     PseudoPot. # 1 for O  read from file:
     /Users/otani/Program/q-e/pseudo/O.pbe-van_ak.UPF
     MD5 check sum: 572909515f9aa9498032b6eb5528d5f9
     Pseudo is Ultrasoft, Zval =  6.0
     Generated by new atomic code, or converted to UPF format
     Using radial grid of  737 points,  4 beta functions with: 
                l(1) =   0
                l(2) =   0
                l(3) =   1
                l(4) =   1
     Q(r) pseudized with  8 coefficients,  rinner =    0.800   0.800   0.800


     PseudoPot. # 2 for H  read from file:
     /Users/otani/Program/q-e/pseudo/H.pbe-van_ak.UPF
     MD5 check sum: a537b41238c433fb4068aaff04c6fb4a
     Pseudo is Ultrasoft, Zval =  1.0
     Generated by new atomic code, or converted to UPF format
     Using radial grid of  615 points,  1 beta functions with: 
                l(1) =   0
     Q(r) pseudized with  8 coefficients,  rinner =    0.800

     atomic species   valence    mass     pseudopotential
        O              6.00    15.99940     O ( 1.00)
        H              1.00     1.00794     H ( 1.00)

      4 Sym. Ops. (no inversion) found



   Cartesian axes

     site n.     atom                  positions (alat units)
         1           O   tau(   1) = (   0.5000000   0.5000000   0.5000000  )
         2           H   tau(   2) = (   0.5816490   0.5577360   0.5000000  )
         3           H   tau(   3) = (   0.4183510   0.5577360   0.5000000  )

     number of k points=     1
                       cart. coord. in units 2pi/alat
        k(    1) = (   0.0000000   0.0000000   0.0000000), wk =   2.0000000

     Dense  grid:   192294 G-vectors     FFT dimensions: (  96,  96,  96)

     Smooth grid:    56901 G-vectors     FFT dimensions: (  64,  64,  64)

     Estimated max dynamical RAM per process >      36.17MB

     Estimated total allocated dynamical RAM >     144.69MB

     Solute:
       # atom     E (kcal/mol)  S (angs)
       1  O       0.15540000    3.16600000    given
       2  H       0.04600000    1.00000000    given
       3  H       0.04600000    1.00000000    given


     3D-RISM info
     ------------
     closure equation        =           KH
     temperature             =     300.0000  kelvin
     coulomb smearing radius =       2.0000  bohr
     number of solvent sites =            4
     solvent sites           =    O/h2o   H/h2o      Na      Cl
     number of iterations    =         2000
     convergence threshold   =      1.0E-03
     convergence level       =       0.1000
     size of MDIIS           =           10
     step of MDIIS           =       0.8000
     solvent cutoff          =     144.0000  Ry
     Custom grid:    98475 G-vectors     FFT dimensions: (  75,  75,  75)


     Initial potential from superposition of free atoms
     Check: negative starting charge=   -0.004004

     starting charge    7.99998, renormalised to    8.00000

     negative rho (up, down):  4.004E-03 0.000E+00

     3D-RISM Calculation

     convergence threshold    = 2.239E-02
     iter. #     1  RMS(g-h-1)= 4.603E-01  nbox=  0
     iter. #     8  RMS(g-h-1)= 2.048E-02  nbox=  7

     End of 3D-RISM calculation


     convergence has been achieved in     8 iterations


     solvent charge    1.15276, renormalised to    0.00000

     Total number of solvent
     H2O           33.088147
     Na+            0.533389
     Cl-            0.078888

     Total charge of solvent
     H2O            0.698256 e
     Na+            0.533389 e
     Cl-           -0.078888 e
     Total          1.152756 e

     Chemical potential of solvation
     H2O        Closure      0.254909E+01 kcal/mol
                GaussFluct   0.139385E+01 kcal/mol
     Na+        Closure     -0.116938E+01 kcal/mol
                GaussFluct  -0.175990E+01 kcal/mol
     Cl-        Closure     -0.410887E+00 kcal/mol
                GaussFluct  -0.540093E+00 kcal/mol
     Total      Closure      0.968819E+00 kcal/mol
                GaussFluct  -0.906141E+00 kcal/mol

     Starting wfc are    6 randomized atomic wfcs

     total cpu time spent up to now is       20.6 secs

     Self-consistent Calculation

     iteration #  1     ecut=    25.00 Ry     beta=0.40
     Davidson diagonalization with overlap
     ethr =  1.00E-02,  avg # of iterations =  2.0

     negative rho (up, down):  1.585E-03 0.000E+00

     3D-RISM Calculation

     convergence threshold    = 2.239E-02
     iter. #     1  RMS(g-h-1)= 1.452E-01  nbox=  0
     iter. #     5  RMS(g-h-1)= 1.951E-02  nbox=  4

     End of 3D-RISM calculation


     convergence has been achieved in     5 iterations


     solvent charge    0.77860, renormalised to    0.00000

     Total number of solvent
     H2O           33.005691
     Na+            0.414272
     Cl-            0.072774

     Total charge of solvent
     H2O            0.437102 e
     Na+            0.414272 e
     Cl-           -0.072774 e
     Total          0.778600 e

     Chemical potential of solvation
     H2O        Closure      0.277629E+01 kcal/mol
                GaussFluct   0.129450E+01 kcal/mol
     Na+        Closure     -0.266034E+01 kcal/mol
                GaussFluct  -0.362731E+01 kcal/mol
     Cl-        Closure     -0.949966E+00 kcal/mol
                GaussFluct  -0.164928E+01 kcal/mol
     Total      Closure     -0.834018E+00 kcal/mol
                GaussFluct  -0.398209E+01 kcal/mol


     total cpu time spent up to now is       21.3 secs

     total energy              =     -34.32942350 Ry
     Harris-Foulkes estimate   =     -34.56812244 Ry
     estimated scf accuracy    <       0.45914348 Ry

     iteration #  2     ecut=    25.00 Ry     beta=0.40
     Davidson diagonalization with overlap
     ethr =  5.74E-03,  avg # of iterations =  2.0

     negative rho (up, down):  2.868E-03 0.000E+00

     3D-RISM Calculation

     convergence threshold    = 2.239E-02
     iter. #     1  RMS(g-h-1)= 2.685E-02  nbox=  0
     iter. #     2  RMS(g-h-1)= 2.161E-02  nbox=  1

     End of 3D-RISM calculation


     convergence has been achieved in     2 iterations


     solvent charge    0.16372, renormalised to    0.00000

     Total number of solvent
     H2O           33.148733
     Na+            0.410382
     Cl-            0.080215

     Total charge of solvent
     H2O           -0.166447 e
     Na+            0.410382 e
     Cl-           -0.080215 e
     Total          0.163720 e

     Chemical potential of solvation
     H2O        Closure      0.245134E+01 kcal/mol
                GaussFluct   0.862138E+00 kcal/mol
     Na+        Closure     -0.287189E+01 kcal/mol
                GaussFluct  -0.388916E+01 kcal/mol
     Cl-        Closure     -0.107466E+01 kcal/mol
                GaussFluct  -0.180855E+01 kcal/mol
     Total      Closure     -0.149520E+01 kcal/mol
                GaussFluct  -0.483557E+01 kcal/mol


     total cpu time spent up to now is       21.8 secs

     total energy              =     -34.43754596 Ry
     Harris-Foulkes estimate   =     -34.44160852 Ry
     estimated scf accuracy    <       0.03982892 Ry

     iteration #  3     ecut=    25.00 Ry     beta=0.40
     Davidson diagonalization with overlap
     ethr =  4.98E-04,  avg # of iterations =  2.0

     negative rho (up, down):  8.098E-03 0.000E+00

     3D-RISM Calculation

     convergence threshold    = 1.381E-02
     iter. #     1  RMS(g-h-1)= 6.683E-02  nbox=  0
     iter. #     7  RMS(g-h-1)= 1.333E-02  nbox=  6

     End of 3D-RISM calculation


     convergence has been achieved in     7 iterations


     solvent charge    0.04117, renormalised to    0.00000

     Total number of solvent
     H2O           33.415765
     Na+            0.388130
     Cl-            0.106208

     Total charge of solvent
     H2O           -0.240752 e
     Na+            0.388130 e
     Cl-           -0.106208 e
     Total          0.041170 e

     Chemical potential of solvation
     H2O        Closure     -0.118530E+01 kcal/mol
                GaussFluct  -0.327984E+01 kcal/mol
     Na+        Closure     -0.435445E+01 kcal/mol
                GaussFluct  -0.558950E+01 kcal/mol
     Cl-        Closure     -0.188043E+01 kcal/mol
                GaussFluct  -0.311054E+01 kcal/mol
     Total      Closure     -0.742018E+01 kcal/mol
                GaussFluct  -0.119799E+02 kcal/mol


     total cpu time spent up to now is       22.5 secs

     total energy              =     -34.44737392 Ry
     Harris-Foulkes estimate   =     -34.44434629 Ry
     estimated scf accuracy    <       0.01155191 Ry

     iteration #  4     ecut=    25.00 Ry     beta=0.40
     Davidson diagonalization with overlap
     ethr =  1.44E-04,  avg # of iterations =  2.0

     negative rho (up, down):  6.009E-03 0.000E+00

     3D-RISM Calculation

     convergence threshold    = 1.000E-03
     iter. #     1  RMS(g-h-1)= 1.403E-02  nbox=  0
     iter. #    11  RMS(g-h-1)= 6.835E-03  nbox= 10
     iter. #    21  RMS(g-h-1)= 1.994E-03  nbox= 10
     iter. #    24  RMS(g-h-1)= 9.682E-04  nbox= 10

     End of 3D-RISM calculation


     convergence has been achieved in    24 iterations


     solvent charge    0.07911, renormalised to    0.00000

     Total number of solvent
     H2O           33.422428
     Na+            0.308408
     Cl-            0.215974

     Total charge of solvent
     H2O           -0.013329 e
     Na+            0.308408 e
     Cl-           -0.215974 e
     Total          0.079106 e

     Chemical potential of solvation
     H2O        Closure     -0.177917E+01 kcal/mol
                GaussFluct  -0.372271E+01 kcal/mol
     Na+        Closure     -0.125708E+01 kcal/mol
                GaussFluct  -0.127401E+01 kcal/mol
     Cl-        Closure      0.847812E+00 kcal/mol
                GaussFluct   0.843262E+00 kcal/mol
     Total      Closure     -0.218843E+01 kcal/mol
                GaussFluct  -0.415345E+01 kcal/mol


     total cpu time spent up to now is       24.6 secs

     total energy              =     -34.43225598 Ry
     Harris-Foulkes estimate   =     -34.44826955 Ry
     estimated scf accuracy    <       0.00037239 Ry

     iteration #  5     ecut=    25.00 Ry     beta=0.40
     Davidson diagonalization with overlap
     ethr =  4.65E-06,  avg # of iterations =  3.0

     negative rho (up, down):  5.954E-03 0.000E+00

     3D-RISM Calculation

     convergence threshold    = 1.474E-03
     iter. #     1  RMS(g-h-1)= 2.736E-03  nbox=  0
     iter. #     3  RMS(g-h-1)= 1.302E-03  nbox=  2

     End of 3D-RISM calculation


     convergence has been achieved in     3 iterations


     solvent charge    0.06064, renormalised to    0.00000

     Total number of solvent
     H2O           33.413473
     Na+            0.306546
     Cl-            0.215894

     Total charge of solvent
     H2O           -0.030013 e
     Na+            0.306546 e
     Cl-           -0.215894 e
     Total          0.060639 e

     Chemical potential of solvation
     H2O        Closure     -0.158940E+01 kcal/mol
                GaussFluct  -0.353166E+01 kcal/mol
     Na+        Closure     -0.122973E+01 kcal/mol
                GaussFluct  -0.124537E+01 kcal/mol
     Cl-        Closure      0.874209E+00 kcal/mol
                GaussFluct   0.870144E+00 kcal/mol
     Total      Closure     -0.194492E+01 kcal/mol
                GaussFluct  -0.390688E+01 kcal/mol


     total cpu time spent up to now is       25.1 secs

     total energy              =     -34.43293533 Ry
     Harris-Foulkes estimate   =     -34.43303255 Ry
     estimated scf accuracy    <       0.00071744 Ry

     iteration #  6     ecut=    25.00 Ry     beta=0.40
     Davidson diagonalization with overlap
     ethr =  4.65E-06,  avg # of iterations =  1.0

     negative rho (up, down):  5.905E-03 0.000E+00

     3D-RISM Calculation

     convergence threshold    = 1.793E-03
     iter. #     1  RMS(g-h-1)= 2.315E-02  nbox=  0
     iter. #     6  RMS(g-h-1)= 1.745E-03  nbox=  5

     End of 3D-RISM calculation


     convergence has been achieved in     6 iterations


     solvent charge    0.14290, renormalised to    0.00000

     Total number of solvent
     H2O           33.425804
     Na+            0.324539
     Cl-            0.224534

     Total charge of solvent
     H2O            0.042892 e
     Na+            0.324539 e
     Cl-           -0.224534 e
     Total          0.142896 e

     Chemical potential of solvation
     H2O        Closure     -0.377966E+01 kcal/mol
                GaussFluct  -0.575883E+01 kcal/mol
     Na+        Closure     -0.148397E+01 kcal/mol
                GaussFluct  -0.152660E+01 kcal/mol
     Cl-        Closure      0.591085E+00 kcal/mol
                GaussFluct   0.564323E+00 kcal/mol
     Total      Closure     -0.467254E+01 kcal/mol
                GaussFluct  -0.672111E+01 kcal/mol


     total cpu time spent up to now is       25.7 secs

     total energy              =     -34.43297637 Ry
     Harris-Foulkes estimate   =     -34.43294568 Ry
     estimated scf accuracy    <       0.00091557 Ry

     iteration #  7     ecut=    25.00 Ry     beta=0.40
     Davidson diagonalization with overlap
     ethr =  4.65E-06,  avg # of iterations =  2.0

     negative rho (up, down):  6.058E-03 0.000E+00

     3D-RISM Calculation

     convergence threshold    = 1.000E-03
     iter. #     1  RMS(g-h-1)= 2.391E-03  nbox=  0
     iter. #    11  RMS(g-h-1)= 9.365E-04  nbox= 10

     End of 3D-RISM calculation


     convergence has been achieved in    11 iterations


     solvent charge    0.08935, renormalised to    0.00000

     Total number of solvent
     H2O           33.426584
     Na+            0.319305
     Cl-            0.236715

     Total charge of solvent
     H2O            0.006757 e
     Na+            0.319305 e
     Cl-           -0.236715 e
     Total          0.089347 e

     Chemical potential of solvation
     H2O        Closure     -0.381056E+01 kcal/mol
                GaussFluct  -0.579470E+01 kcal/mol
     Na+        Closure     -0.142633E+01 kcal/mol
                GaussFluct  -0.145595E+01 kcal/mol
     Cl-        Closure      0.716154E+00 kcal/mol
                GaussFluct   0.703342E+00 kcal/mol
     Total      Closure     -0.452073E+01 kcal/mol
                GaussFluct  -0.654731E+01 kcal/mol


     total cpu time spent up to now is       26.7 secs

     total energy              =     -34.43299112 Ry
     Harris-Foulkes estimate   =     -34.43309526 Ry
     estimated scf accuracy    <       0.00005722 Ry

     iteration #  8     ecut=    25.00 Ry     beta=0.40
     Davidson diagonalization with overlap
     ethr =  7.15E-07,  avg # of iterations =  3.0

     negative rho (up, down):  6.144E-03 0.000E+00

     3D-RISM Calculation

     convergence threshold    = 1.000E-03
     iter. #     1  RMS(g-h-1)= 2.586E-03  nbox=  0
     iter. #     4  RMS(g-h-1)= 8.045E-04  nbox=  3

     End of 3D-RISM calculation


     convergence has been achieved in     4 iterations


     solvent charge    0.07604, renormalised to    0.00000

     Total number of solvent
     H2O           33.424399
     Na+            0.317409
     Cl-            0.236765

     Total charge of solvent
     H2O           -0.004600 e
     Na+            0.317409 e
     Cl-           -0.236765 e
     Total          0.076044 e

     Chemical potential of solvation
     H2O        Closure     -0.356705E+01 kcal/mol
                GaussFluct  -0.554707E+01 kcal/mol
     Na+        Closure     -0.139428E+01 kcal/mol
                GaussFluct  -0.142003E+01 kcal/mol
     Cl-        Closure      0.752320E+00 kcal/mol
                GaussFluct   0.742514E+00 kcal/mol
     Total      Closure     -0.420901E+01 kcal/mol
                GaussFluct  -0.622459E+01 kcal/mol


     total cpu time spent up to now is       27.3 secs

     total energy              =     -34.43299862 Ry
     Harris-Foulkes estimate   =     -34.43302286 Ry
     estimated scf accuracy    <       0.00002846 Ry

     iteration #  9     ecut=    25.00 Ry     beta=0.40
     Davidson diagonalization with overlap
     ethr =  3.56E-07,  avg # of iterations =  2.0

     negative rho (up, down):  6.206E-03 0.000E+00

     3D-RISM Calculation

     convergence threshold    = 1.000E-03
     iter. #     1  RMS(g-h-1)= 1.190E-03  nbox=  0
     iter. #     3  RMS(g-h-1)= 8.222E-04  nbox=  2

     End of 3D-RISM calculation


     convergence has been achieved in     3 iterations


     solvent charge    0.06900, renormalised to    0.00000

     Total number of solvent
     H2O           33.421731
     Na+            0.316628
     Cl-            0.236890

     Total charge of solvent
     H2O           -0.010735 e
     Na+            0.316628 e
     Cl-           -0.236890 e
     Total          0.069003 e

     Chemical potential of solvation
     H2O        Closure     -0.349480E+01 kcal/mol
                GaussFluct  -0.547495E+01 kcal/mol
     Na+        Closure     -0.138316E+01 kcal/mol
                GaussFluct  -0.140768E+01 kcal/mol
     Cl-        Closure      0.763083E+00 kcal/mol
                GaussFluct   0.754070E+00 kcal/mol
     Total      Closure     -0.411487E+01 kcal/mol
                GaussFluct  -0.612856E+01 kcal/mol


     total cpu time spent up to now is       27.8 secs

     total energy              =     -34.43302127 Ry
     Harris-Foulkes estimate   =     -34.43300061 Ry
     estimated scf accuracy    <       0.00000220 Ry

     iteration # 10     ecut=    25.00 Ry     beta=0.40
     Davidson diagonalization with overlap
     ethr =  2.75E-08,  avg # of iterations =  2.0

     negative rho (up, down):  6.305E-03 0.000E+00

     3D-RISM Calculation

     convergence threshold    = 1.000E-03
     iter. #     1  RMS(g-h-1)= 9.297E-04  nbox=  0

     End of 3D-RISM calculation


     convergence has been achieved in     1 iterations


     solvent charge    0.06151, renormalised to    0.00000

     Total number of solvent
     H2O           33.416668
     Na+            0.316331
     Cl-            0.236906

     Total charge of solvent
     H2O           -0.017919 e
     Na+            0.316331 e
     Cl-           -0.236906 e
     Total          0.061506 e

     Chemical potential of solvation
     H2O        Closure     -0.349763E+01 kcal/mol
                GaussFluct  -0.547417E+01 kcal/mol
     Na+        Closure     -0.138161E+01 kcal/mol
                GaussFluct  -0.140601E+01 kcal/mol
     Cl-        Closure      0.763081E+00 kcal/mol
                GaussFluct   0.754087E+00 kcal/mol
     Total      Closure     -0.411616E+01 kcal/mol
                GaussFluct  -0.612609E+01 kcal/mol


     total cpu time spent up to now is       28.2 secs

     End of self-consistent calculation

          k = 0.0000 0.0000 0.0000 (  7122 PWs)   bands (ev):

   -25.5082 -13.5087  -9.7663  -7.9510

     highest occupied level (ev):    -7.9510

!    total energy              =     -34.43305275 Ry
     Harris-Foulkes estimate   =     -34.43302176 Ry
     estimated scf accuracy    <       0.00000039 Ry

     The total energy is the sum of the following terms:

     one-electron contribution =     -62.73926468 Ry
     hartree contribution      =      32.91404460 Ry
     xc contribution           =      -8.36659545 Ry
     ewald contribution        =       3.77189060 Ry
     solvation energy (RISM)   =      -0.01312782 Ry

     convergence has been achieved in  10 iterations

     Writing output data file H2O.NaCl_aq.save

     init_run     :      1.12s CPU      1.19s WALL (       1 calls)
     electrons    :      7.19s CPU      7.51s WALL (       1 calls)

     Called by init_run:
     wfcinit      :      0.01s CPU      0.01s WALL (       1 calls)
     potinit      :      0.96s CPU      1.00s WALL (       1 calls)

     Called by electrons:
     c_bands      :      0.11s CPU      0.13s WALL (      10 calls)
     sum_band     :      0.73s CPU      0.81s WALL (      10 calls)
     v_of_rho     :      1.23s CPU      1.42s WALL (      11 calls)
     newd         :      0.37s CPU      0.49s WALL (      11 calls)
     mix_rho      :      0.17s CPU      0.19s WALL (      10 calls)

     Called by c_bands:
     init_us_2    :      0.01s CPU      0.01s WALL (      21 calls)
     regterg      :      0.11s CPU      0.12s WALL (      10 calls)

     Called by sum_band:
     sum_band:bec :      0.00s CPU      0.00s WALL (      10 calls)
     addusdens    :      0.47s CPU      0.49s WALL (      10 calls)

     Called by *egterg:
     h_psi        :      0.10s CPU      0.10s WALL (      32 calls)
     s_psi        :      0.00s CPU      0.00s WALL (      32 calls)
     g_psi        :      0.00s CPU      0.00s WALL (      21 calls)
     rdiaghg      :      0.00s CPU      0.01s WALL (      31 calls)

     Called by h_psi:
     h_psi:pot    :      0.10s CPU      0.10s WALL (      32 calls)
     h_psi:calbec :      0.00s CPU      0.00s WALL (      32 calls)
     vloc_psi     :      0.09s CPU      0.10s WALL (      32 calls)
     add_vuspsi   :      0.00s CPU      0.00s WALL (      32 calls)

     General routines
     calbec       :      0.01s CPU      0.01s WALL (      42 calls)
     fft          :      1.37s CPU      1.54s WALL (     204 calls)
     ffts         :      0.02s CPU      0.03s WALL (      21 calls)
     fftw         :      0.08s CPU      0.09s WALL (     142 calls)
     fftc         :      1.68s CPU      1.90s WALL (     625 calls)
     interpolate  :      0.19s CPU      0.24s WALL (      21 calls)
     davcio       :      0.00s CPU      0.00s WALL (       1 calls)

     Parallel routines
     fft_scatter  :      1.59s CPU      1.63s WALL (     992 calls)

     RISM routines
     1DRISM_pre   :      0.00s CPU      0.00s WALL (       1 calls)
     1DRISM_run   :      8.85s CPU     19.05s WALL (       1 calls)
     3DRISM_pre   :      0.31s CPU      0.31s WALL (       1 calls)
     3DRISM_run   :      4.90s CPU      4.75s WALL (      11 calls)
     3DRISM_vsol  :      0.08s CPU      0.10s WALL (      11 calls)

     PWSCF        :    17.55s CPU        28.24s WALL


   This run was terminated on:  18:49:46  15Apr2021            

=------------------------------------------------------------------------------=
   JOB DONE.
=------------------------------------------------------------------------------=
