
     Program PWSCF v.6.1 starts on  1Mar2017 at  1:34: 6 

     This program is part of the open-source Quantum ESPRESSO suite
     for quantum simulation of materials; please cite
         "P. Giannozzi et al., J. Phys.:Condens. Matter 21 395502 (2009);
          URL http://www.quantum-espresso.org", 
     in publications or presentations arising from this work. More details at
     http://www.quantum-espresso.org/quote

     Parallel version (MPI & OpenMP), running on       4 processor cores
     Number of MPI processes:                 4
     Threads/MPI process:                     1
     R & G space division:  proc/nbgrp/npool/nimage =       4
     Waiting for input...
     Reading input from standard input

     Current dimensions of program PWSCF are:
     Max number of different atomic species (ntypx) = 10
     Max number of k-points (npk) =  40000
     Max angular momentum in pseudopotentials (lmaxx) =  3
     Message from routine iosys_1drism:
     default density from MOL file(H2O.spc.MOL) is used

     gamma-point specific algorithms are used

     Subspace diagonalization in iterative solution of the eigenvalue problem:
     a serial algorithm will be used


     Molecule # 1 for H2O read from file:
     /home/nisihara/QE/espresso/pseudo/H2O.spc.MOL
     Density:
         0.33427032E+02 cell^-1
         0.49533750E-02 bohr^-3
         0.55506881E+02 mol/L
         0.99997200E+00 g/cm^3
     Number of atoms:   3
     Atoms: 
       #  atom      X (angs)      Y (angs)      Z (angs)      Q (e)         E (kcal/mol)  S (angs)
       1  O/h2o     0.00000000    0.00000000    0.00000000   -0.82000000    0.15540000    3.16600000
       2  H/h2o     0.81649000    0.57736000    0.00000000    0.41000000    0.04600000    1.00000000
       3  H/h2o    -0.81649000    0.57736000    0.00000000    0.41000000    0.04600000    1.00000000


     Molecule # 2 for Na+ read from file:
     /home/nisihara/QE/espresso/pseudo/Na+.aq.MOL
     Density:
         0.30110710E+00 cell^-1
         0.44619468E-04 bohr^-3
         0.50000000E+00 mol/L
         0.11494885E-01 g/cm^3
     Number of atoms:   1
     Atoms: 
       #  atom      X (angs)      Y (angs)      Z (angs)      Q (e)         E (kcal/mol)  S (angs)
       1  Na        0.00000000    0.00000000    0.00000000    1.00000000    0.13010000    2.35000000


     Molecule # 3 for Cl- read from file:
     /home/nisihara/QE/espresso/pseudo/Cl-.aq.MOL
     Density:
         0.30110710E+00 cell^-1
         0.44619468E-04 bohr^-3
         0.50000000E+00 mol/L
         0.17726350E-01 g/cm^3
     Number of atoms:   1
     Atoms: 
       #  atom      X (angs)      Y (angs)      Z (angs)      Q (e)         E (kcal/mol)  S (angs)
       1  Cl        0.00000000    0.00000000    0.00000000   -1.00000000    0.10010000    4.40000000


     1D-RISM info
     ------------
     closure equation        =           KH
     temperature             =     300.0000  kelvin
     coulomb smearing radius =       2.0000  bohr
     number of solvent sites =            5
     number of grids         =         1252
     maximum of R-space      =     249.8003  bohr
     maximum of G-space      =      15.7268  bohr^-1
     number of iterations    =        10000
     convergence threshold   =      1.0E-08
     Gaussian width of bonds =       0.0000  bohr
     size of MDIIS           =           20
     step of MDIIS           =       0.5000
     number of processes     =            4


     1D-RISM Calculation

     iter. #     1  RMS(g-h-1)= 2.945E-03  nbox=  0  T= 2400.00K
     iter. #   101  RMS(g-h-1)= 9.390E-07  nbox=  1  T=  711.11K
     iter. #   201  RMS(g-h-1)= 3.398E-04  nbox=  6  T=  316.05K
     iter. #   301  RMS(g-h-1)= 8.171E-09  nbox= 20  T=  300.00K

     End of 1D-RISM calculation


     convergence has been achieved in   301 iterations


     Chemical potential of solvation

     H2O        H2O        Closure     -0.153889E+01 kcal/mol
                           GaussFluct  -0.504010E+01 kcal/mol

                Na+        Closure     -0.402301E+00 kcal/mol
                           GaussFluct  -0.422442E+00 kcal/mol

                Cl-        Closure     -0.353170E+00 kcal/mol
                           GaussFluct  -0.377648E+00 kcal/mol

                Total      Closure     -0.229436E+01 kcal/mol
                           GaussFluct  -0.584019E+01 kcal/mol

     Na+        H2O        Closure     -0.446610E+02 kcal/mol
                           GaussFluct  -0.468969E+02 kcal/mol

                Na+        Closure      0.109668E+05 kcal/mol
                           GaussFluct   0.109667E+05 kcal/mol

                Cl-        Closure     -0.110041E+05 kcal/mol
                           GaussFluct  -0.110041E+05 kcal/mol

                Total      Closure     -0.820464E+02 kcal/mol
                           GaussFluct  -0.843434E+02 kcal/mol

     Cl-        H2O        Closure     -0.392067E+02 kcal/mol
                           GaussFluct  -0.419241E+02 kcal/mol

                Na+        Closure     -0.110041E+05 kcal/mol
                           GaussFluct  -0.110041E+05 kcal/mol

                Cl-        Closure      0.109669E+05 kcal/mol
                           GaussFluct   0.109669E+05 kcal/mol

                Total      Closure     -0.764231E+02 kcal/mol
                           GaussFluct  -0.792030E+02 kcal/mol


     Parallelization info
     --------------------
     sticks:   dense  smooth     PW     G-vecs:    dense   smooth      PW
     Min        1595     710    178                96144    28450    3560
     Max        1598     714    180                96150    28451    3562
     Sum        6385    2845    717               384587   113801   14243



     bravais-lattice index     =            1
     lattice parameter (alat)  =      18.8973  a.u.
     unit-cell volume          =    6748.3346 (a.u.)^3
     number of atoms/cell      =            3
     number of atomic types    =            2
     number of electrons       =         8.00
     number of Kohn-Sham states=            4
     kinetic-energy cutoff     =      25.0000  Ry
     charge density cutoff     =     225.0000  Ry
     convergence threshold     =      1.0E-06
     mixing beta               =       0.4000
     number of iterations used =            8  plain     mixing
     Exchange-correlation      =  SLA  LYP  B88  BLYP ( 1  3  1  3 0 0)
     nstep                     =           50


     celldm(1)=  18.897261  celldm(2)=   0.000000  celldm(3)=   0.000000
     celldm(4)=   0.000000  celldm(5)=   0.000000  celldm(6)=   0.000000

     crystal axes: (cart. coord. in units of alat)
               a(1) = (   1.000000   0.000000   0.000000 )  
               a(2) = (   0.000000   1.000000   0.000000 )  
               a(3) = (   0.000000   0.000000   1.000000 )  

     reciprocal axes: (cart. coord. in units 2 pi/alat)
               b(1) = (  1.000000  0.000000  0.000000 )  
               b(2) = (  0.000000  1.000000  0.000000 )  
               b(3) = (  0.000000  0.000000  1.000000 )  


     PseudoPot. # 1 for O  read from file:
     /home/nisihara/QE/espresso/pseudo/O.blyp-van_ak.UPF
     MD5 check sum: 183ffcd2817aedfb9c735dec17c858da
     Pseudo is Ultrasoft, Zval =  6.0
     Generated by new atomic code, or converted to UPF format
     Using radial grid of  737 points,  4 beta functions with: 
                l(1) =   0
                l(2) =   0
                l(3) =   1
                l(4) =   1
     Q(r) pseudized with  8 coefficients,  rinner =    0.800   0.800   0.800


     PseudoPot. # 2 for H  read from file:
     /home/nisihara/QE/espresso/pseudo/H.blyp-van_ak.UPF
     MD5 check sum: 43b56d53567289e609a4f62df139f449
     Pseudo is Ultrasoft, Zval =  1.0
     Generated by new atomic code, or converted to UPF format
     Using radial grid of  615 points,  1 beta functions with: 
                l(1) =   0
     Q(r) pseudized with  8 coefficients,  rinner =    0.800

     atomic species   valence    mass     pseudopotential
        O              6.00    15.99940     O ( 1.00)
        H              1.00     1.00794     H ( 1.00)

      4 Sym. Ops. (no inversion) found



   Cartesian axes

     site n.     atom                  positions (alat units)
         1           O   tau(   1) = (   0.5000000   0.5000000   0.5000000  )
         2           H   tau(   2) = (   0.5816490   0.5577360   0.5000000  )
         3           H   tau(   3) = (   0.4183510   0.5577360   0.5000000  )

     number of k points=     1
                       cart. coord. in units 2pi/alat
        k(    1) = (   0.0000000   0.0000000   0.0000000), wk =   2.0000000

     Dense  grid:   192294 G-vectors     FFT dimensions: (  96,  96,  96)

     Smooth grid:    56901 G-vectors     FFT dimensions: (  64,  64,  64)

     Estimated max dynamical RAM per process >      36.17MB

     Estimated total allocated dynamical RAM >     144.69MB

     Solute:
       # atom     E (kcal/mol)  S (angs)
       1  O       0.15540000    3.16600000    given
       2  H       0.04600000    1.00000000    given
       3  H       0.04600000    1.00000000    given


     3D-RISM info
     ------------
     closure equation        =           KH
     temperature             =     300.0000  kelvin
     coulomb smearing radius =       2.0000  bohr
     number of solvent sites =            4
     solvent sites           =    O/h2o   H/h2o      Na      Cl
     number of iterations    =         2000
     convergence threshold   =      1.0E-03
     size of MDIIS           =           10
     step of MDIIS           =       0.8000
     solvent cutoff          =     144.0000  Ry
     Custom grid:    98475 G-vectors     FFT dimensions: (  75,  75,  75)


     Initial potential from superposition of free atoms
     Check: negative starting charge=   -0.004045

     starting charge    7.99998, renormalised to    8.00000

     negative rho (up, down):  4.045E-03 0.000E+00

     3D-RISM Calculation

     convergence threshold    = 3.162E-02
     iter. #     1  RMS(g-h-1)= 2.806E+00  nbox=  0
     iter. #    11  RMS(g-h-1)= 5.294E-02  nbox=  9
     iter. #    16  RMS(g-h-1)= 2.848E-02  nbox= 10

     End of 3D-RISM calculation


     convergence has been achieved in    16 iterations


     solvent charge    0.21959, renormalised to    0.00000

     Total charge of solvent
     H2O          0.217620 e
     Na+          0.303704 e
     Cl-         -0.301729 e
     Total        0.219595 e

     Chemical potential of solvation
     H2O        Closure      0.636365E+01 kcal/mol
                GaussFluct   0.447204E+01 kcal/mol
     Na+        Closure     -0.107925E+01 kcal/mol
                GaussFluct  -0.108687E+01 kcal/mol
     Cl-        Closure      0.119714E+01 kcal/mol
                GaussFluct   0.118431E+01 kcal/mol
     Total      Closure      0.648154E+01 kcal/mol
                GaussFluct   0.456948E+01 kcal/mol

     Starting wfc are    6 randomized atomic wfcs

     total cpu time spent up to now is        4.5 secs

     per-process dynamical memory:    74.8 Mb

     Self-consistent Calculation

     iteration #  1     ecut=    25.00 Ry     beta=0.40
     Davidson diagonalization with overlap
     ethr =  1.00E-02,  avg # of iterations =  2.0

     negative rho (up, down):  1.623E-03 0.000E+00

     3D-RISM Calculation

     convergence threshold    = 3.162E-02
     iter. #     1  RMS(g-h-1)= 2.995E+00  nbox=  0
     iter. #    10  RMS(g-h-1)= 2.827E-02  nbox=  8

     End of 3D-RISM calculation


     convergence has been achieved in    10 iterations


     solvent charge   -0.34314, renormalised to    0.00000

     Total charge of solvent
     H2O         -0.338834 e
     Na+          0.299944 e
     Cl-         -0.304249 e
     Total       -0.343139 e

     Chemical potential of solvation
     H2O        Closure      0.340429E+01 kcal/mol
                GaussFluct   0.132341E+01 kcal/mol
     Na+        Closure     -0.102087E+01 kcal/mol
                GaussFluct  -0.102950E+01 kcal/mol
     Cl-        Closure      0.103496E+01 kcal/mol
                GaussFluct   0.102017E+01 kcal/mol
     Total      Closure      0.341838E+01 kcal/mol
                GaussFluct   0.131407E+01 kcal/mol


     total cpu time spent up to now is        5.7 secs

     total energy              =     -34.29546988 Ry
     Harris-Foulkes estimate   =     -34.52890761 Ry
     estimated scf accuracy    <       0.47701288 Ry

     iteration #  2     ecut=    25.00 Ry     beta=0.40
     Davidson diagonalization with overlap
     ethr =  5.96E-03,  avg # of iterations =  2.0

     negative rho (up, down):  2.823E-03 0.000E+00

     3D-RISM Calculation

     convergence threshold    = 3.162E-02
     iter. #     1  RMS(g-h-1)= 3.143E-01  nbox=  0
     iter. #     5  RMS(g-h-1)= 3.016E-02  nbox=  3

     End of 3D-RISM calculation


     convergence has been achieved in     5 iterations


     solvent charge   -0.33081, renormalised to    0.00000

     Total charge of solvent
     H2O         -0.325626 e
     Na+          0.299146 e
     Cl-         -0.304335 e
     Total       -0.330815 e

     Chemical potential of solvation
     H2O        Closure      0.201824E+01 kcal/mol
                GaussFluct  -0.503714E-01 kcal/mol
     Na+        Closure     -0.106883E+01 kcal/mol
                GaussFluct  -0.107782E+01 kcal/mol
     Cl-        Closure      0.978993E+00 kcal/mol
                GaussFluct   0.963482E+00 kcal/mol
     Total      Closure      0.192841E+01 kcal/mol
                GaussFluct  -0.164707E+00 kcal/mol


     total cpu time spent up to now is        6.4 secs

     total energy              =     -34.40234176 Ry
     Harris-Foulkes estimate   =     -34.41040163 Ry
     estimated scf accuracy    <       0.03774868 Ry

     iteration #  3     ecut=    25.00 Ry     beta=0.40
     Davidson diagonalization with overlap
     ethr =  4.72E-04,  avg # of iterations =  2.0

     negative rho (up, down):  8.267E-03 0.000E+00

     3D-RISM Calculation

     convergence threshold    = 1.044E-02
     iter. #     1  RMS(g-h-1)= 1.007E+00  nbox=  0
     iter. #    11  RMS(g-h-1)= 1.721E-02  nbox=  9
     iter. #    14  RMS(g-h-1)= 8.624E-03  nbox= 10

     End of 3D-RISM calculation


     convergence has been achieved in    14 iterations


     solvent charge   -0.04492, renormalised to    0.00000

     Total charge of solvent
     H2O         -0.044316 e
     Na+          0.301040 e
     Cl-         -0.301641 e
     Total       -0.044917 e

     Chemical potential of solvation
     H2O        Closure     -0.181165E+01 kcal/mol
                GaussFluct  -0.379294E+01 kcal/mol
     Na+        Closure     -0.123549E+01 kcal/mol
                GaussFluct  -0.124655E+01 kcal/mol
     Cl-        Closure      0.816187E+00 kcal/mol
                GaussFluct   0.801404E+00 kcal/mol
     Total      Closure     -0.223095E+01 kcal/mol
                GaussFluct  -0.423809E+01 kcal/mol


     total cpu time spent up to now is        8.0 secs

     total energy              =     -34.40119904 Ry
     Harris-Foulkes estimate   =     -34.41975258 Ry
     estimated scf accuracy    <       0.01043804 Ry

     iteration #  4     ecut=    25.00 Ry     beta=0.40
     Davidson diagonalization with overlap
     ethr =  1.30E-04,  avg # of iterations =  2.0

     negative rho (up, down):  6.536E-03 0.000E+00

     3D-RISM Calculation

     convergence threshold    = 1.000E-03
     iter. #     1  RMS(g-h-1)= 5.929E-02  nbox=  0
     iter. #    11  RMS(g-h-1)= 2.322E-03  nbox=  9
     iter. #    21  RMS(g-h-1)= 1.133E-03  nbox= 10
     iter. #    24  RMS(g-h-1)= 9.930E-04  nbox= 10

     End of 3D-RISM calculation


     convergence has been achieved in    24 iterations


     solvent charge    0.00167, renormalised to    0.00000

     Total charge of solvent
     H2O          0.001646 e
     Na+          0.301108 e
     Cl-         -0.301081 e
     Total        0.001674 e

     Chemical potential of solvation
     H2O        Closure     -0.206949E+01 kcal/mol
                GaussFluct  -0.402037E+01 kcal/mol
     Na+        Closure     -0.125908E+01 kcal/mol
                GaussFluct  -0.127029E+01 kcal/mol
     Cl-        Closure      0.811297E+00 kcal/mol
                GaussFluct   0.796845E+00 kcal/mol
     Total      Closure     -0.251728E+01 kcal/mol
                GaussFluct  -0.449382E+01 kcal/mol


     total cpu time spent up to now is       10.6 secs

     total energy              =     -34.40467741 Ry
     Harris-Foulkes estimate   =     -34.40323593 Ry
     estimated scf accuracy    <       0.00043949 Ry

     iteration #  5     ecut=    25.00 Ry     beta=0.40
     Davidson diagonalization with overlap
     ethr =  5.49E-06,  avg # of iterations =  3.0

     negative rho (up, down):  6.172E-03 0.000E+00

     3D-RISM Calculation

     convergence threshold    = 1.000E-03
     iter. #     1  RMS(g-h-1)= 5.257E-02  nbox=  0
     iter. #    11  RMS(g-h-1)= 9.871E-04  nbox=  9

     End of 3D-RISM calculation


     convergence has been achieved in    11 iterations


     solvent charge    0.00208, renormalised to    0.00000

     Total charge of solvent
     H2O          0.002039 e
     Na+          0.301127 e
     Cl-         -0.301090 e
     Total        0.002076 e

     Chemical potential of solvation
     H2O        Closure     -0.236064E+01 kcal/mol
                GaussFluct  -0.431760E+01 kcal/mol
     Na+        Closure     -0.127484E+01 kcal/mol
                GaussFluct  -0.128617E+01 kcal/mol
     Cl-        Closure      0.805232E+00 kcal/mol
                GaussFluct   0.790720E+00 kcal/mol
     Total      Closure     -0.283025E+01 kcal/mol
                GaussFluct  -0.481305E+01 kcal/mol


     total cpu time spent up to now is       11.9 secs

     total energy              =     -34.40532673 Ry
     Harris-Foulkes estimate   =     -34.40581143 Ry
     estimated scf accuracy    <       0.00047453 Ry

     iteration #  6     ecut=    25.00 Ry     beta=0.40
     Davidson diagonalization with overlap
     ethr =  5.49E-06,  avg # of iterations =  1.0

     negative rho (up, down):  5.924E-03 0.000E+00

     3D-RISM Calculation

     convergence threshold    = 1.000E-03
     iter. #     1  RMS(g-h-1)= 2.864E-01  nbox=  0
     iter. #    11  RMS(g-h-1)= 2.684E-03  nbox=  9
     iter. #    21  RMS(g-h-1)= 1.081E-03  nbox= 10
     iter. #    24  RMS(g-h-1)= 9.833E-04  nbox= 10

     End of 3D-RISM calculation


     convergence has been achieved in    24 iterations


     solvent charge   -0.00231, renormalised to    0.00000

     Total charge of solvent
     H2O         -0.002271 e
     Na+          0.301090 e
     Cl-         -0.301127 e
     Total       -0.002308 e

     Chemical potential of solvation
     H2O        Closure     -0.400610E+01 kcal/mol
                GaussFluct  -0.599853E+01 kcal/mol
     Na+        Closure     -0.137356E+01 kcal/mol
                GaussFluct  -0.138551E+01 kcal/mol
     Cl-        Closure      0.776681E+00 kcal/mol
                GaussFluct   0.761849E+00 kcal/mol
     Total      Closure     -0.460298E+01 kcal/mol
                GaussFluct  -0.662218E+01 kcal/mol


     total cpu time spent up to now is       14.5 secs

     total energy              =     -34.40558535 Ry
     Harris-Foulkes estimate   =     -34.41098447 Ry
     estimated scf accuracy    <       0.00030689 Ry

     iteration #  7     ecut=    25.00 Ry     beta=0.40
     Davidson diagonalization with overlap
     ethr =  3.84E-06,  avg # of iterations =  2.0

     negative rho (up, down):  6.020E-03 0.000E+00

     3D-RISM Calculation

     convergence threshold    = 1.000E-03
     iter. #     1  RMS(g-h-1)= 3.785E-02  nbox=  0
     iter. #     7  RMS(g-h-1)= 9.817E-04  nbox=  5

     End of 3D-RISM calculation


     convergence has been achieved in     7 iterations


     solvent charge   -0.00136, renormalised to    0.00000

     Total charge of solvent
     H2O         -0.001332 e
     Na+          0.301094 e
     Cl-         -0.301121 e
     Total       -0.001358 e

     Chemical potential of solvation
     H2O        Closure     -0.383618E+01 kcal/mol
                GaussFluct  -0.582489E+01 kcal/mol
     Na+        Closure     -0.136486E+01 kcal/mol
                GaussFluct  -0.137675E+01 kcal/mol
     Cl-        Closure      0.780362E+00 kcal/mol
                GaussFluct   0.765567E+00 kcal/mol
     Total      Closure     -0.442067E+01 kcal/mol
                GaussFluct  -0.643607E+01 kcal/mol


     total cpu time spent up to now is       15.5 secs

     total energy              =     -34.40553768 Ry
     Harris-Foulkes estimate   =     -34.40508482 Ry
     estimated scf accuracy    <       0.00014934 Ry

     iteration #  8     ecut=    25.00 Ry     beta=0.40
     Davidson diagonalization with overlap
     ethr =  1.87E-06,  avg # of iterations =  1.0

     negative rho (up, down):  6.089E-03 0.000E+00

     3D-RISM Calculation

     convergence threshold    = 1.000E-03
     iter. #     1  RMS(g-h-1)= 1.727E-02  nbox=  0
     iter. #     6  RMS(g-h-1)= 9.708E-04  nbox=  4

     End of 3D-RISM calculation


     convergence has been achieved in     6 iterations


     solvent charge   -0.00191, renormalised to    0.00000

     Total charge of solvent
     H2O         -0.001882 e
     Na+          0.301081 e
     Cl-         -0.301113 e
     Total       -0.001914 e

     Chemical potential of solvation
     H2O        Closure     -0.373893E+01 kcal/mol
                GaussFluct  -0.572606E+01 kcal/mol
     Na+        Closure     -0.136021E+01 kcal/mol
                GaussFluct  -0.137206E+01 kcal/mol
     Cl-        Closure      0.782535E+00 kcal/mol
                GaussFluct   0.767760E+00 kcal/mol
     Total      Closure     -0.431660E+01 kcal/mol
                GaussFluct  -0.633036E+01 kcal/mol


     total cpu time spent up to now is       16.3 secs

     total energy              =     -34.40548172 Ry
     Harris-Foulkes estimate   =     -34.40521476 Ry
     estimated scf accuracy    <       0.00002753 Ry

     iteration #  9     ecut=    25.00 Ry     beta=0.40
     Davidson diagonalization with overlap
     ethr =  3.44E-07,  avg # of iterations =  1.0

     negative rho (up, down):  6.146E-03 0.000E+00

     3D-RISM Calculation

     convergence threshold    = 1.000E-03
     iter. #     1  RMS(g-h-1)= 1.949E-02  nbox=  0
     iter. #     7  RMS(g-h-1)= 9.591E-04  nbox=  5

     End of 3D-RISM calculation


     convergence has been achieved in     7 iterations


     solvent charge   -0.00247, renormalised to    0.00000

     Total charge of solvent
     H2O         -0.002430 e
     Na+          0.301091 e
     Cl-         -0.301134 e
     Total       -0.002473 e

     Chemical potential of solvation
     H2O        Closure     -0.363790E+01 kcal/mol
                GaussFluct  -0.562371E+01 kcal/mol
     Na+        Closure     -0.135457E+01 kcal/mol
                GaussFluct  -0.136639E+01 kcal/mol
     Cl-        Closure      0.784523E+00 kcal/mol
                GaussFluct   0.769756E+00 kcal/mol
     Total      Closure     -0.420795E+01 kcal/mol
                GaussFluct  -0.622034E+01 kcal/mol


     total cpu time spent up to now is       17.3 secs

     total energy              =     -34.40542866 Ry
     Harris-Foulkes estimate   =     -34.40513682 Ry
     estimated scf accuracy    <       0.00001227 Ry

     iteration # 10     ecut=    25.00 Ry     beta=0.40
     Davidson diagonalization with overlap
     ethr =  1.53E-07,  avg # of iterations =  2.0

     negative rho (up, down):  6.245E-03 0.000E+00

     3D-RISM Calculation

     convergence threshold    = 1.000E-03
     iter. #     1  RMS(g-h-1)= 6.569E-03  nbox=  0
     iter. #     5  RMS(g-h-1)= 9.943E-04  nbox=  3

     End of 3D-RISM calculation


     convergence has been achieved in     5 iterations


     solvent charge   -0.00436, renormalised to    0.00000

     Total charge of solvent
     H2O         -0.004297 e
     Na+          0.301063 e
     Cl-         -0.301128 e
     Total       -0.004362 e

     Chemical potential of solvation
     H2O        Closure     -0.362424E+01 kcal/mol
                GaussFluct  -0.560993E+01 kcal/mol
     Na+        Closure     -0.135297E+01 kcal/mol
                GaussFluct  -0.136477E+01 kcal/mol
     Cl-        Closure      0.784623E+00 kcal/mol
                GaussFluct   0.769861E+00 kcal/mol
     Total      Closure     -0.419258E+01 kcal/mol
                GaussFluct  -0.620483E+01 kcal/mol


     total cpu time spent up to now is       18.1 secs

     End of self-consistent calculation

          k = 0.0000 0.0000 0.0000 (  7122 PWs)   bands (ev):

   -25.2771 -13.3592  -9.6798  -7.9182

     highest occupied level (ev):    -7.9182

!    total energy              =     -34.40534652 Ry
     Harris-Foulkes estimate   =     -34.40538253 Ry
     estimated scf accuracy    <       0.00000050 Ry

     The total energy is the sum of the following terms:

     one-electron contribution =     -62.74280164 Ry
     hartree contribution      =      32.91085522 Ry
     xc contribution           =      -8.33191915 Ry
     ewald contribution        =       3.77189060 Ry
     solvation energy (RISM)   =      -0.01337155 Ry

     convergence has been achieved in  10 iterations

     Forces acting on atoms (cartesian axes, Ry/au):

     atom    1 type  1   force =     0.00000000    0.01819977    0.00000000
     atom    2 type  2   force =    -0.03716349   -0.00909989    0.00000000
     atom    3 type  2   force =     0.03716349   -0.00909989    0.00000000

     Total force =     0.054110     Total SCF correction =     0.000416

     BFGS Geometry Optimization

     number of scf cycles    =   1
     number of bfgs steps    =   0

     energy   new            =     -34.4053465227 Ry

     new trust radius        =       0.0382613780 bohr
     new conv_thr            =       0.0000010000 Ry


ATOMIC_POSITIONS (angstrom)
O        5.000000000   5.000000000   5.000000000    0   0   0
H        5.796823927   5.572544548   5.000000000
H        4.203176073   5.572544548   5.000000000



     Writing output data file H2O.NaCl_aq.save
     Check: negative starting charge=   -0.004045
     NEW-OLD atomic charge density approx. for the potential
     Check: negative starting charge=   -0.004009

     negative rho (up, down):  6.467E-03 0.000E+00

     3D-RISM Calculation

     convergence threshold    = 3.162E-02
     iter. #     1  RMS(g-h-1)= 1.487E-01  nbox=  0
     iter. #     2  RMS(g-h-1)= 2.707E-02  nbox=  1

     End of 3D-RISM calculation


     convergence has been achieved in     2 iterations


     solvent charge   -0.13628, renormalised to    0.00000

     Total charge of solvent
     H2O         -0.134305 e
     Na+          0.301101 e
     Cl-         -0.303072 e
     Total       -0.136276 e

     Chemical potential of solvation
     H2O        Closure     -0.362592E+01 kcal/mol
                GaussFluct  -0.563621E+01 kcal/mol
     Na+        Closure     -0.135673E+01 kcal/mol
                GaussFluct  -0.136885E+01 kcal/mol
     Cl-        Closure      0.778294E+00 kcal/mol
                GaussFluct   0.762342E+00 kcal/mol
     Total      Closure     -0.420436E+01 kcal/mol
                GaussFluct  -0.624271E+01 kcal/mol


     total cpu time spent up to now is       21.1 secs

     per-process dynamical memory:   105.4 Mb

     Self-consistent Calculation

     iteration #  1     ecut=    25.00 Ry     beta=0.40
     Davidson diagonalization with overlap
     ethr =  1.00E-06,  avg # of iterations =  4.0

     negative rho (up, down):  6.431E-03 0.000E+00

     3D-RISM Calculation

     convergence threshold    = 1.000E-03
     iter. #     1  RMS(g-h-1)= 7.284E-02  nbox=  0
     iter. #    11  RMS(g-h-1)= 1.140E-03  nbox=  9
     iter. #    13  RMS(g-h-1)= 9.528E-04  nbox= 10

     End of 3D-RISM calculation


     convergence has been achieved in    13 iterations


     solvent charge   -0.00235, renormalised to    0.00000

     Total charge of solvent
     H2O         -0.002319 e
     Na+          0.301092 e
     Cl-         -0.301123 e
     Total       -0.002351 e

     Chemical potential of solvation
     H2O        Closure     -0.378775E+01 kcal/mol
                GaussFluct  -0.577198E+01 kcal/mol
     Na+        Closure     -0.135998E+01 kcal/mol
                GaussFluct  -0.137184E+01 kcal/mol
     Cl-        Closure      0.776289E+00 kcal/mol
                GaussFluct   0.761511E+00 kcal/mol
     Total      Closure     -0.437144E+01 kcal/mol
                GaussFluct  -0.638231E+01 kcal/mol


     total cpu time spent up to now is       22.6 secs

     total energy              =     -34.40663408 Ry
     Harris-Foulkes estimate   =     -34.40747764 Ry
     estimated scf accuracy    <       0.00073696 Ry

     iteration #  2     ecut=    25.00 Ry     beta=0.40
     Davidson diagonalization with overlap
     ethr =  9.21E-06,  avg # of iterations =  2.0

     negative rho (up, down):  6.407E-03 0.000E+00

     3D-RISM Calculation

     convergence threshold    = 1.000E-03
     iter. #     1  RMS(g-h-1)= 3.321E-02  nbox=  0
     iter. #     6  RMS(g-h-1)= 9.519E-04  nbox=  4

     End of 3D-RISM calculation


     convergence has been achieved in     6 iterations


     solvent charge    0.00180, renormalised to    0.00000

     Total charge of solvent
     H2O          0.001783 e
     Na+          0.301107 e
     Cl-         -0.301087 e
     Total        0.001803 e

     Chemical potential of solvation
     H2O        Closure     -0.363444E+01 kcal/mol
                GaussFluct  -0.561441E+01 kcal/mol
     Na+        Closure     -0.135530E+01 kcal/mol
                GaussFluct  -0.136712E+01 kcal/mol
     Cl-        Closure      0.780509E+00 kcal/mol
                GaussFluct   0.765782E+00 kcal/mol
     Total      Closure     -0.420923E+01 kcal/mol
                GaussFluct  -0.621575E+01 kcal/mol


     total cpu time spent up to now is       23.5 secs

     total energy              =     -34.40694153 Ry
     Harris-Foulkes estimate   =     -34.40642858 Ry
     estimated scf accuracy    <       0.00012122 Ry

     iteration #  3     ecut=    25.00 Ry     beta=0.40
     Davidson diagonalization with overlap
     ethr =  1.52E-06,  avg # of iterations =  2.0

     negative rho (up, down):  6.369E-03 0.000E+00

     3D-RISM Calculation

     convergence threshold    = 1.000E-03
     iter. #     1  RMS(g-h-1)= 3.791E-02  nbox=  0
     iter. #     7  RMS(g-h-1)= 9.444E-04  nbox=  5

     End of 3D-RISM calculation


     convergence has been achieved in     7 iterations


     solvent charge    0.00286, renormalised to    0.00000

     Total charge of solvent
     H2O          0.002824 e
     Na+          0.301128 e
     Cl-         -0.301092 e
     Total        0.002860 e

     Chemical potential of solvation
     H2O        Closure     -0.339948E+01 kcal/mol
                GaussFluct  -0.537469E+01 kcal/mol
     Na+        Closure     -0.134550E+01 kcal/mol
                GaussFluct  -0.135725E+01 kcal/mol
     Cl-        Closure      0.786238E+00 kcal/mol
                GaussFluct   0.771562E+00 kcal/mol
     Total      Closure     -0.395874E+01 kcal/mol
                GaussFluct  -0.596038E+01 kcal/mol


     total cpu time spent up to now is       24.4 secs

     total energy              =     -34.40699709 Ry
     Harris-Foulkes estimate   =     -34.40615456 Ry
     estimated scf accuracy    <       0.00002423 Ry

     iteration #  4     ecut=    25.00 Ry     beta=0.40
     Davidson diagonalization with overlap
     ethr =  3.03E-07,  avg # of iterations =  2.0

     negative rho (up, down):  6.372E-03 0.000E+00

     3D-RISM Calculation

     convergence threshold    = 1.000E-03
     iter. #     1  RMS(g-h-1)= 4.810E-03  nbox=  0
     iter. #     5  RMS(g-h-1)= 9.026E-04  nbox=  3

     End of 3D-RISM calculation


     convergence has been achieved in     5 iterations


     solvent charge    0.00168, renormalised to    0.00000

     Total charge of solvent
     H2O          0.001645 e
     Na+          0.301109 e
     Cl-         -0.301077 e
     Total        0.001676 e

     Chemical potential of solvation
     H2O        Closure     -0.338124E+01 kcal/mol
                GaussFluct  -0.535605E+01 kcal/mol
     Na+        Closure     -0.134393E+01 kcal/mol
                GaussFluct  -0.135566E+01 kcal/mol
     Cl-        Closure      0.786639E+00 kcal/mol
                GaussFluct   0.771974E+00 kcal/mol
     Total      Closure     -0.393853E+01 kcal/mol
                GaussFluct  -0.593974E+01 kcal/mol


     total cpu time spent up to now is       25.2 secs

     total energy              =     -34.40699702 Ry
     Harris-Foulkes estimate   =     -34.40693700 Ry
     estimated scf accuracy    <       0.00000321 Ry

     iteration #  5     ecut=    25.00 Ry     beta=0.40
     Davidson diagonalization with overlap
     ethr =  4.01E-08,  avg # of iterations =  2.0

     negative rho (up, down):  6.375E-03 0.000E+00

     3D-RISM Calculation

     convergence threshold    = 1.000E-03
     iter. #     1  RMS(g-h-1)= 7.654E-03  nbox=  0
     iter. #     5  RMS(g-h-1)= 8.980E-04  nbox=  3

     End of 3D-RISM calculation


     convergence has been achieved in     5 iterations


     solvent charge    0.00109, renormalised to    0.00000

     Total charge of solvent
     H2O          0.001068 e
     Na+          0.301108 e
     Cl-         -0.301084 e
     Total        0.001093 e

     Chemical potential of solvation
     H2O        Closure     -0.332731E+01 kcal/mol
                GaussFluct  -0.530137E+01 kcal/mol
     Na+        Closure     -0.134102E+01 kcal/mol
                GaussFluct  -0.135273E+01 kcal/mol
     Cl-        Closure      0.787827E+00 kcal/mol
                GaussFluct   0.773168E+00 kcal/mol
     Total      Closure     -0.388050E+01 kcal/mol
                GaussFluct  -0.588093E+01 kcal/mol


     total cpu time spent up to now is       26.0 secs

     End of self-consistent calculation

          k = 0.0000 0.0000 0.0000 (  7122 PWs)   bands (ev):

   -25.4957 -13.5175  -9.7678  -7.9651

     highest occupied level (ev):    -7.9651

!    total energy              =     -34.40699687 Ry
     Harris-Foulkes estimate   =     -34.40681279 Ry
     estimated scf accuracy    <       0.00000029 Ry

     The total energy is the sum of the following terms:

     one-electron contribution =     -63.16124232 Ry
     hartree contribution      =      33.09996612 Ry
     xc contribution           =      -8.36339777 Ry
     ewald contribution        =       4.03005333 Ry
     solvation energy (RISM)   =      -0.01237622 Ry

     convergence has been achieved in   5 iterations

     Forces acting on atoms (cartesian axes, Ry/au):

     atom    1 type  1   force =     0.00000000   -0.01194988    0.00000000
     atom    2 type  2   force =    -0.00879218    0.00597494    0.00000000
     atom    3 type  2   force =     0.00879218    0.00597494    0.00000000

     Total force =     0.015033     Total SCF correction =     0.000164

     number of scf cycles    =   2
     number of bfgs steps    =   1

     energy   old            =     -34.4053465227 Ry
     energy   new            =     -34.4069968663 Ry

     CASE: energy  _new < energy  _old

     new trust radius        =       0.0148196903 bohr
     new conv_thr            =       0.0000000879 Ry


ATOMIC_POSITIONS (angstrom)
O        5.000000000   5.000000000   5.000000000    0   0   0
H        5.789844000   5.576119655   5.000000000
H        4.210156000   5.576119655   5.000000000



     Writing output data file H2O.NaCl_aq.save
     Check: negative starting charge=   -0.004009
     NEW-OLD atomic charge density approx. for the potential
     Check: negative starting charge=   -0.004002

     negative rho (up, down):  6.413E-03 0.000E+00

     3D-RISM Calculation

     convergence threshold    = 1.722E-02
     iter. #     1  RMS(g-h-1)= 5.556E-02  nbox=  0
     iter. #     2  RMS(g-h-1)= 9.889E-03  nbox=  1

     End of 3D-RISM calculation


     convergence has been achieved in     2 iterations


     solvent charge   -0.02992, renormalised to    0.00000

     Total charge of solvent
     H2O         -0.029554 e
     Na+          0.301039 e
     Cl-         -0.301402 e
     Total       -0.029917 e

     Chemical potential of solvation
     H2O        Closure     -0.333695E+01 kcal/mol
                GaussFluct  -0.530996E+01 kcal/mol
     Na+        Closure     -0.134080E+01 kcal/mol
                GaussFluct  -0.135253E+01 kcal/mol
     Cl-        Closure      0.786939E+00 kcal/mol
                GaussFluct   0.772092E+00 kcal/mol
     Total      Closure     -0.389082E+01 kcal/mol
                GaussFluct  -0.589040E+01 kcal/mol


     total cpu time spent up to now is       29.1 secs

     per-process dynamical memory:   111.6 Mb

     Self-consistent Calculation

     iteration #  1     ecut=    25.00 Ry     beta=0.40
     Davidson diagonalization with overlap
     ethr =  1.00E-06,  avg # of iterations =  3.0

     negative rho (up, down):  6.405E-03 0.000E+00

     3D-RISM Calculation

     convergence threshold    = 2.965E-04
     iter. #     1  RMS(g-h-1)= 1.647E-02  nbox=  0
     iter. #    11  RMS(g-h-1)= 7.704E-04  nbox=  9
     iter. #    21  RMS(g-h-1)= 6.139E-04  nbox= 10
     iter. #    31  RMS(g-h-1)= 4.886E-04  nbox=  6
     iter. #    41  RMS(g-h-1)= 4.158E-04  nbox= 10
     iter. #    51  RMS(g-h-1)= 3.591E-04  nbox= 10
     iter. #    61  RMS(g-h-1)= 3.175E-04  nbox=  4
     iter. #    67  RMS(g-h-1)= 2.964E-04  nbox= 10

     End of 3D-RISM calculation


     convergence has been achieved in    67 iterations


     solvent charge   -0.00005, renormalised to    0.00000

     Total charge of solvent
     H2O         -0.000052 e
     Na+          0.301107 e
     Cl-         -0.301107 e
     Total       -0.000052 e

     Chemical potential of solvation
     H2O        Closure     -0.329421E+01 kcal/mol
                GaussFluct  -0.526647E+01 kcal/mol
     Na+        Closure     -0.133865E+01 kcal/mol
                GaussFluct  -0.135033E+01 kcal/mol
     Cl-        Closure      0.787356E+00 kcal/mol
                GaussFluct   0.772704E+00 kcal/mol
     Total      Closure     -0.384549E+01 kcal/mol
                GaussFluct  -0.584409E+01 kcal/mol


     total cpu time spent up to now is       35.0 secs

     total energy              =     -34.40716267 Ry
     Harris-Foulkes estimate   =     -34.40702770 Ry
     estimated scf accuracy    <       0.00002393 Ry

     iteration #  2     ecut=    25.00 Ry     beta=0.40
     Davidson diagonalization with overlap
     ethr =  2.99E-07,  avg # of iterations =  2.0

     negative rho (up, down):  6.400E-03 0.000E+00

     3D-RISM Calculation

     convergence threshold    = 2.965E-04
     iter. #     1  RMS(g-h-1)= 8.806E-03  nbox=  0
     iter. #     8  RMS(g-h-1)= 2.960E-04  nbox=  6

     End of 3D-RISM calculation


     convergence has been achieved in     8 iterations


     solvent charge    0.00025, renormalised to    0.00000

     Total charge of solvent
     H2O          0.000245 e
     Na+          0.301110 e
     Cl-         -0.301107 e
     Total        0.000249 e

     Chemical potential of solvation
     H2O        Closure     -0.327872E+01 kcal/mol
                GaussFluct  -0.525041E+01 kcal/mol
     Na+        Closure     -0.133860E+01 kcal/mol
                GaussFluct  -0.135028E+01 kcal/mol
     Cl-        Closure      0.787427E+00 kcal/mol
                GaussFluct   0.772779E+00 kcal/mol
     Total      Closure     -0.382990E+01 kcal/mol
                GaussFluct  -0.582791E+01 kcal/mol


     total cpu time spent up to now is       36.0 secs

     total energy              =     -34.40718179 Ry
     Harris-Foulkes estimate   =     -34.40712142 Ry
     estimated scf accuracy    <       0.00000384 Ry

     iteration #  3     ecut=    25.00 Ry     beta=0.40
     Davidson diagonalization with overlap
     ethr =  4.79E-08,  avg # of iterations =  1.0

     negative rho (up, down):  6.393E-03 0.000E+00

     3D-RISM Calculation

     convergence threshold    = 2.965E-04
     iter. #     1  RMS(g-h-1)= 1.246E-02  nbox=  0
     iter. #    11  RMS(g-h-1)= 2.935E-04  nbox=  9

     End of 3D-RISM calculation


     convergence has been achieved in    11 iterations


     solvent charge    0.00026, renormalised to    0.00000

     Total charge of solvent
     H2O          0.000256 e
     Na+          0.301107 e
     Cl-         -0.301103 e
     Total        0.000260 e

     Chemical potential of solvation
     H2O        Closure     -0.325785E+01 kcal/mol
                GaussFluct  -0.522862E+01 kcal/mol
     Na+        Closure     -0.133858E+01 kcal/mol
                GaussFluct  -0.135024E+01 kcal/mol
     Cl-        Closure      0.787518E+00 kcal/mol
                GaussFluct   0.772876E+00 kcal/mol
     Total      Closure     -0.380891E+01 kcal/mol
                GaussFluct  -0.580599E+01 kcal/mol


     total cpu time spent up to now is       37.2 secs

     total energy              =     -34.40719294 Ry
     Harris-Foulkes estimate   =     -34.40711491 Ry
     estimated scf accuracy    <       0.00000131 Ry

     iteration #  4     ecut=    25.00 Ry     beta=0.40
     Davidson diagonalization with overlap
     ethr =  1.64E-08,  avg # of iterations =  2.0

     negative rho (up, down):  6.395E-03 0.000E+00

     3D-RISM Calculation

     convergence threshold    = 2.965E-04
     iter. #     1  RMS(g-h-1)= 2.126E-03  nbox=  0
     iter. #     6  RMS(g-h-1)= 2.937E-04  nbox=  4

     End of 3D-RISM calculation


     convergence has been achieved in     6 iterations


     solvent charge   -0.00002, renormalised to    0.00000

     Total charge of solvent
     H2O         -0.000024 e
     Na+          0.301108 e
     Cl-         -0.301108 e
     Total       -0.000024 e

     Chemical potential of solvation
     H2O        Closure     -0.325886E+01 kcal/mol
                GaussFluct  -0.522973E+01 kcal/mol
     Na+        Closure     -0.133849E+01 kcal/mol
                GaussFluct  -0.135016E+01 kcal/mol
     Cl-        Closure      0.787395E+00 kcal/mol
                GaussFluct   0.772751E+00 kcal/mol
     Total      Closure     -0.380996E+01 kcal/mol
                GaussFluct  -0.580714E+01 kcal/mol


     total cpu time spent up to now is       38.1 secs

     End of self-consistent calculation

          k = 0.0000 0.0000 0.0000 (  7122 PWs)   bands (ev):

   -25.5426 -13.5122  -9.8078  -7.9709

     highest occupied level (ev):    -7.9709

!    total energy              =     -34.40718972 Ry
     Harris-Foulkes estimate   =     -34.40719641 Ry
     estimated scf accuracy    <       0.00000007 Ry

     The total energy is the sum of the following terms:

     one-electron contribution =     -63.24729969 Ry
     hartree contribution      =      33.13968334 Ry
     xc contribution           =      -8.37014891 Ry
     ewald contribution        =       4.08272678 Ry
     solvation energy (RISM)   =      -0.01215123 Ry

     convergence has been achieved in   4 iterations

     Forces acting on atoms (cartesian axes, Ry/au):

     atom    1 type  1   force =     0.00000000   -0.01631646    0.00000000
     atom    2 type  2   force =    -0.00161256    0.00815823    0.00000000
     atom    3 type  2   force =     0.00161256    0.00815823    0.00000000

     Total force =     0.011761     Total SCF correction =     0.000131

     number of scf cycles    =   3
     number of bfgs steps    =   2

     energy   old            =     -34.4069968663 Ry
     energy   new            =     -34.4071897175 Ry

     CASE: energy  _new < energy  _old

     new trust radius        =       0.0259258639 bohr
     new conv_thr            =       0.0000000193 Ry


ATOMIC_POSITIONS (angstrom)
O        5.000000000   5.000000000   5.000000000    0   0   0
H        5.781019451   5.586624350   5.000000000
H        4.218980549   5.586624350   5.000000000



     Writing output data file H2O.NaCl_aq.save
     Check: negative starting charge=   -0.004002
     NEW-OLD atomic charge density approx. for the potential
     Check: negative starting charge=   -0.003999

     negative rho (up, down):  6.424E-03 0.000E+00

     3D-RISM Calculation

     convergence threshold    = 1.178E-02
     iter. #     1  RMS(g-h-1)= 9.313E-02  nbox=  0
     iter. #     5  RMS(g-h-1)= 5.168E-03  nbox=  3

     End of 3D-RISM calculation


     convergence has been achieved in     5 iterations


     solvent charge   -0.00762, renormalised to    0.00000

     Total charge of solvent
     H2O         -0.007584 e
     Na+          0.301021 e
     Cl-         -0.301060 e
     Total       -0.007623 e

     Chemical potential of solvation
     H2O        Closure     -0.328192E+01 kcal/mol
                GaussFluct  -0.524989E+01 kcal/mol
     Na+        Closure     -0.133585E+01 kcal/mol
                GaussFluct  -0.134744E+01 kcal/mol
     Cl-        Closure      0.789155E+00 kcal/mol
                GaussFluct   0.774531E+00 kcal/mol
     Total      Closure     -0.382861E+01 kcal/mol
                GaussFluct  -0.582280E+01 kcal/mol


     total cpu time spent up to now is       41.6 secs

     per-process dynamical memory:   111.6 Mb

     Self-consistent Calculation

     iteration #  1     ecut=    25.00 Ry     beta=0.40
     Davidson diagonalization with overlap
     ethr =  1.00E-06,  avg # of iterations =  3.0

     negative rho (up, down):  6.404E-03 0.000E+00

     3D-RISM Calculation

     convergence threshold    = 1.389E-04
     iter. #     1  RMS(g-h-1)= 2.463E-02  nbox=  0
     iter. #    11  RMS(g-h-1)= 3.415E-04  nbox=  9
     iter. #    21  RMS(g-h-1)= 2.811E-04  nbox= 10
     iter. #    31  RMS(g-h-1)= 2.614E-04  nbox=  5
     iter. #    41  RMS(g-h-1)= 2.442E-04  nbox= 10
     iter. #    51  RMS(g-h-1)= 2.313E-04  nbox=  9
     iter. #    61  RMS(g-h-1)= 2.124E-04  nbox=  3
     iter. #    71  RMS(g-h-1)= 1.993E-04  nbox= 10
     iter. #    81  RMS(g-h-1)= 1.893E-04  nbox=  7
     iter. #    91  RMS(g-h-1)= 1.759E-04  nbox= 10
     iter. #   101  RMS(g-h-1)= 1.656E-04  nbox= 10
     iter. #   111  RMS(g-h-1)= 1.574E-04  nbox=  5
     iter. #   121  RMS(g-h-1)= 1.488E-04  nbox= 10
     iter. #   131  RMS(g-h-1)= 1.432E-04  nbox=  9
     iter. #   141  RMS(g-h-1)= 1.397E-04  nbox=  3
     iter. #   143  RMS(g-h-1)= 1.389E-04  nbox=  5

     End of 3D-RISM calculation


     convergence has been achieved in   143 iterations


     solvent charge   -0.00000, renormalised to    0.00000

     Total charge of solvent
     H2O         -0.000000 e
     Na+          0.301107 e
     Cl-         -0.301107 e
     Total       -0.000000 e

     Chemical potential of solvation
     H2O        Closure     -0.315726E+01 kcal/mol
                GaussFluct  -0.512465E+01 kcal/mol
     Na+        Closure     -0.133261E+01 kcal/mol
                GaussFluct  -0.134423E+01 kcal/mol
     Cl-        Closure      0.788936E+00 kcal/mol
                GaussFluct   0.774318E+00 kcal/mol
     Total      Closure     -0.370093E+01 kcal/mol
                GaussFluct  -0.569457E+01 kcal/mol


     total cpu time spent up to now is       53.9 secs

     total energy              =     -34.40739738 Ry
     Harris-Foulkes estimate   =     -34.40700372 Ry
     estimated scf accuracy    <       0.00003888 Ry

     iteration #  2     ecut=    25.00 Ry     beta=0.40
     Davidson diagonalization with overlap
     ethr =  4.86E-07,  avg # of iterations =  2.0

     negative rho (up, down):  6.400E-03 0.000E+00

     3D-RISM Calculation

     convergence threshold    = 1.389E-04
     iter. #     1  RMS(g-h-1)= 1.399E-02  nbox=  0
     iter. #    11  RMS(g-h-1)= 1.492E-04  nbox=  9
     iter. #    21  RMS(g-h-1)= 1.386E-04  nbox= 10

     End of 3D-RISM calculation


     convergence has been achieved in    21 iterations


     solvent charge    0.00005, renormalised to    0.00000

     Total charge of solvent
     H2O          0.000050 e
     Na+          0.301108 e
     Cl-         -0.301107 e
     Total        0.000051 e

     Chemical potential of solvation
     H2O        Closure     -0.318069E+01 kcal/mol
                GaussFluct  -0.514800E+01 kcal/mol
     Na+        Closure     -0.133419E+01 kcal/mol
                GaussFluct  -0.134581E+01 kcal/mol
     Cl-        Closure      0.787636E+00 kcal/mol
                GaussFluct   0.773013E+00 kcal/mol
     Total      Closure     -0.372724E+01 kcal/mol
                GaussFluct  -0.572080E+01 kcal/mol


     total cpu time spent up to now is       56.1 secs

     total energy              =     -34.40743231 Ry
     Harris-Foulkes estimate   =     -34.40750875 Ry
     estimated scf accuracy    <       0.00001336 Ry

     iteration #  3     ecut=    25.00 Ry     beta=0.40
     Davidson diagonalization with overlap
     ethr =  1.67E-07,  avg # of iterations =  1.0

     negative rho (up, down):  6.396E-03 0.000E+00

     3D-RISM Calculation

     convergence threshold    = 1.389E-04
     iter. #     1  RMS(g-h-1)= 2.647E-02  nbox=  0
     iter. #    11  RMS(g-h-1)= 1.664E-04  nbox=  9
     iter. #    21  RMS(g-h-1)= 1.456E-04  nbox= 10
     iter. #    31  RMS(g-h-1)= 1.395E-04  nbox=  6
     iter. #    33  RMS(g-h-1)= 1.386E-04  nbox=  8

     End of 3D-RISM calculation


     convergence has been achieved in    33 iterations


     solvent charge   -0.00003, renormalised to    0.00000

     Total charge of solvent
     H2O         -0.000034 e
     Na+          0.301107 e
     Cl-         -0.301107 e
     Total       -0.000035 e

     Chemical potential of solvation
     H2O        Closure     -0.322620E+01 kcal/mol
                GaussFluct  -0.519340E+01 kcal/mol
     Na+        Closure     -0.133753E+01 kcal/mol
                GaussFluct  -0.134917E+01 kcal/mol
     Cl-        Closure      0.785272E+00 kcal/mol
                GaussFluct   0.770639E+00 kcal/mol
     Total      Closure     -0.377846E+01 kcal/mol
                GaussFluct  -0.577193E+01 kcal/mol


     total cpu time spent up to now is       59.1 secs

     total energy              =     -34.40744471 Ry
     Harris-Foulkes estimate   =     -34.40759609 Ry
     estimated scf accuracy    <       0.00000548 Ry

     iteration #  4     ecut=    25.00 Ry     beta=0.40
     Davidson diagonalization with overlap
     ethr =  6.84E-08,  avg # of iterations =  2.0

     negative rho (up, down):  6.393E-03 0.000E+00

     3D-RISM Calculation

     convergence threshold    = 1.389E-04
     iter. #     1  RMS(g-h-1)= 5.530E-03  nbox=  0
     iter. #    11  RMS(g-h-1)= 1.478E-04  nbox=  9
     iter. #    14  RMS(g-h-1)= 1.384E-04  nbox= 10

     End of 3D-RISM calculation


     convergence has been achieved in    14 iterations


     solvent charge    0.00004, renormalised to    0.00000

     Total charge of solvent
     H2O          0.000036 e
     Na+          0.301107 e
     Cl-         -0.301107 e
     Total        0.000036 e

     Chemical potential of solvation
     H2O        Closure     -0.322514E+01 kcal/mol
                GaussFluct  -0.519223E+01 kcal/mol
     Na+        Closure     -0.133810E+01 kcal/mol
                GaussFluct  -0.134974E+01 kcal/mol
     Cl-        Closure      0.785405E+00 kcal/mol
                GaussFluct   0.770773E+00 kcal/mol
     Total      Closure     -0.377784E+01 kcal/mol
                GaussFluct  -0.577119E+01 kcal/mol


     total cpu time spent up to now is       60.6 secs

     total energy              =     -34.40744649 Ry
     Harris-Foulkes estimate   =     -34.40744345 Ry
     estimated scf accuracy    <       0.00000085 Ry

     iteration #  5     ecut=    25.00 Ry     beta=0.40
     Davidson diagonalization with overlap
     ethr =  1.06E-08,  avg # of iterations =  3.0

     negative rho (up, down):  6.393E-03 0.000E+00

     3D-RISM Calculation

     convergence threshold    = 1.389E-04
     iter. #     1  RMS(g-h-1)= 3.082E-03  nbox=  0
     iter. #    11  RMS(g-h-1)= 1.401E-04  nbox=  9
     iter. #    13  RMS(g-h-1)= 1.381E-04  nbox= 10

     End of 3D-RISM calculation


     convergence has been achieved in    13 iterations


     solvent charge   -0.00005, renormalised to    0.00000

     Total charge of solvent
     H2O         -0.000046 e
     Na+          0.301107 e
     Cl-         -0.301108 e
     Total       -0.000047 e

     Chemical potential of solvation
     H2O        Closure     -0.323022E+01 kcal/mol
                GaussFluct  -0.519738E+01 kcal/mol
     Na+        Closure     -0.133817E+01 kcal/mol
                GaussFluct  -0.134981E+01 kcal/mol
     Cl-        Closure      0.785103E+00 kcal/mol
                GaussFluct   0.770469E+00 kcal/mol
     Total      Closure     -0.378329E+01 kcal/mol
                GaussFluct  -0.577673E+01 kcal/mol


     total cpu time spent up to now is       61.9 secs

     total energy              =     -34.40744454 Ry
     Harris-Foulkes estimate   =     -34.40746447 Ry
     estimated scf accuracy    <       0.00000081 Ry

     iteration #  6     ecut=    25.00 Ry     beta=0.40
     Davidson diagonalization with overlap
     ethr =  1.01E-08,  avg # of iterations =  2.0

     negative rho (up, down):  6.392E-03 0.000E+00

     3D-RISM Calculation

     convergence threshold    = 1.389E-04
     iter. #     1  RMS(g-h-1)= 7.906E-04  nbox=  0
     iter. #     7  RMS(g-h-1)= 1.385E-04  nbox=  5

     End of 3D-RISM calculation


     convergence has been achieved in     7 iterations


     solvent charge    0.00011, renormalised to    0.00000

     Total charge of solvent
     H2O          0.000113 e
     Na+          0.301107 e
     Cl-         -0.301105 e
     Total        0.000115 e

     Chemical potential of solvation
     H2O        Closure     -0.323110E+01 kcal/mol
                GaussFluct  -0.519820E+01 kcal/mol
     Na+        Closure     -0.133835E+01 kcal/mol
                GaussFluct  -0.134999E+01 kcal/mol
     Cl-        Closure      0.785111E+00 kcal/mol
                GaussFluct   0.770478E+00 kcal/mol
     Total      Closure     -0.378435E+01 kcal/mol
                GaussFluct  -0.577772E+01 kcal/mol


     total cpu time spent up to now is       62.9 secs

     End of self-consistent calculation

          k = 0.0000 0.0000 0.0000 (  7122 PWs)   bands (ev):

   -25.5725 -13.4435  -9.8759  -7.9733

     highest occupied level (ev):    -7.9733

!    total energy              =     -34.40744527 Ry
     Harris-Foulkes estimate   =     -34.40744809 Ry
     estimated scf accuracy    <       0.00000001 Ry

     The total energy is the sum of the following terms:

     one-electron contribution =     -63.27373108 Ry
     hartree contribution      =      33.14874753 Ry
     xc contribution           =      -8.37171973 Ry
     ewald contribution        =       4.10132757 Ry
     solvation energy (RISM)   =      -0.01206955 Ry

     convergence has been achieved in   6 iterations

     Forces acting on atoms (cartesian axes, Ry/au):

     atom    1 type  1   force =     0.00000000   -0.01311747    0.00000000
     atom    2 type  2   force =     0.00332690    0.00655873    0.00000000
     atom    3 type  2   force =    -0.00332690    0.00655873    0.00000000

     Total force =     0.010401     Total SCF correction =     0.000050

     number of scf cycles    =   4
     number of bfgs steps    =   3

     energy   old            =     -34.4071897175 Ry
     energy   new            =     -34.4074452666 Ry

     CASE: energy  _new < energy  _old

     new trust radius        =       0.0213883785 bohr
     new conv_thr            =       0.0000000256 Ry


ATOMIC_POSITIONS (angstrom)
O        5.000000000   5.000000000   5.000000000    0   0   0
H        5.776353918   5.596936256   5.000000000
H        4.223646082   5.596936256   5.000000000



     Writing output data file H2O.NaCl_aq.save
     Check: negative starting charge=   -0.003999
     NEW-OLD atomic charge density approx. for the potential
     Check: negative starting charge=   -0.004004

     negative rho (up, down):  6.388E-03 0.000E+00

     3D-RISM Calculation

     convergence threshold    = 1.264E-02
     iter. #     1  RMS(g-h-1)= 7.517E-02  nbox=  0
     iter. #     5  RMS(g-h-1)= 4.252E-03  nbox=  3

     End of 3D-RISM calculation


     convergence has been achieved in     5 iterations


     solvent charge   -0.00064, renormalised to    0.00000

     Total charge of solvent
     H2O         -0.000724 e
     Na+          0.301098 e
     Cl-         -0.301013 e
     Total       -0.000640 e

     Chemical potential of solvation
     H2O        Closure     -0.324784E+01 kcal/mol
                GaussFluct  -0.521112E+01 kcal/mol
     Na+        Closure     -0.133562E+01 kcal/mol
                GaussFluct  -0.134721E+01 kcal/mol
     Cl-        Closure      0.787782E+00 kcal/mol
                GaussFluct   0.773209E+00 kcal/mol
     Total      Closure     -0.379569E+01 kcal/mol
                GaussFluct  -0.578512E+01 kcal/mol


     total cpu time spent up to now is       66.1 secs

     per-process dynamical memory:   112.0 Mb

     Self-consistent Calculation

     iteration #  1     ecut=    25.00 Ry     beta=0.40
     Davidson diagonalization with overlap
     ethr =  1.00E-06,  avg # of iterations =  3.0

     negative rho (up, down):  6.373E-03 0.000E+00

     3D-RISM Calculation

     convergence threshold    = 1.599E-04
     iter. #     1  RMS(g-h-1)= 2.747E-02  nbox=  0
     iter. #    11  RMS(g-h-1)= 2.472E-04  nbox=  9
     iter. #    19  RMS(g-h-1)= 1.583E-04  nbox= 10

     End of 3D-RISM calculation


     convergence has been achieved in    19 iterations


     solvent charge   -0.00003, renormalised to    0.00000

     Total charge of solvent
     H2O         -0.000031 e
     Na+          0.301108 e
     Cl-         -0.301108 e
     Total       -0.000030 e

     Chemical potential of solvation
     H2O        Closure     -0.313782E+01 kcal/mol
                GaussFluct  -0.510312E+01 kcal/mol
     Na+        Closure     -0.133310E+01 kcal/mol
                GaussFluct  -0.134470E+01 kcal/mol
     Cl-        Closure      0.787477E+00 kcal/mol
                GaussFluct   0.772856E+00 kcal/mol
     Total      Closure     -0.368344E+01 kcal/mol
                GaussFluct  -0.567497E+01 kcal/mol


     total cpu time spent up to now is       68.2 secs

     total energy              =     -34.40753604 Ry
     Harris-Foulkes estimate   =     -34.40720548 Ry
     estimated scf accuracy    <       0.00005873 Ry

     iteration #  2     ecut=    25.00 Ry     beta=0.40
     Davidson diagonalization with overlap
     ethr =  7.34E-07,  avg # of iterations =  3.0

     negative rho (up, down):  6.372E-03 0.000E+00

     3D-RISM Calculation

     convergence threshold    = 1.599E-04
     iter. #     1  RMS(g-h-1)= 1.343E-02  nbox=  0
     iter. #    11  RMS(g-h-1)= 1.595E-04  nbox=  9

     End of 3D-RISM calculation


     convergence has been achieved in    11 iterations


     solvent charge   -0.00058, renormalised to    0.00000

     Total charge of solvent
     H2O         -0.000574 e
     Na+          0.301101 e
     Cl-         -0.301109 e
     Total       -0.000583 e

     Chemical potential of solvation
     H2O        Closure     -0.317679E+01 kcal/mol
                GaussFluct  -0.514239E+01 kcal/mol
     Na+        Closure     -0.133495E+01 kcal/mol
                GaussFluct  -0.134656E+01 kcal/mol
     Cl-        Closure      0.785814E+00 kcal/mol
                GaussFluct   0.771184E+00 kcal/mol
     Total      Closure     -0.372592E+01 kcal/mol
                GaussFluct  -0.571776E+01 kcal/mol


     total cpu time spent up to now is       69.5 secs

     total energy              =     -34.40757615 Ry
     Harris-Foulkes estimate   =     -34.40770891 Ry
     estimated scf accuracy    <       0.00001554 Ry

     iteration #  3     ecut=    25.00 Ry     beta=0.40
     Davidson diagonalization with overlap
     ethr =  1.94E-07,  avg # of iterations =  1.0

     negative rho (up, down):  6.374E-03 0.000E+00

     3D-RISM Calculation

     convergence threshold    = 1.599E-04
     iter. #     1  RMS(g-h-1)= 2.335E-02  nbox=  0
     iter. #    11  RMS(g-h-1)= 1.698E-04  nbox=  9
     iter. #    13  RMS(g-h-1)= 1.590E-04  nbox= 10

     End of 3D-RISM calculation


     convergence has been achieved in    13 iterations


     solvent charge   -0.00030, renormalised to    0.00000

     Total charge of solvent
     H2O         -0.000297 e
     Na+          0.301104 e
     Cl-         -0.301109 e
     Total       -0.000303 e

     Chemical potential of solvation
     H2O        Closure     -0.325077E+01 kcal/mol
                GaussFluct  -0.521684E+01 kcal/mol
     Na+        Closure     -0.133909E+01 kcal/mol
                GaussFluct  -0.135072E+01 kcal/mol
     Cl-        Closure      0.782851E+00 kcal/mol
                GaussFluct   0.768206E+00 kcal/mol
     Total      Closure     -0.380700E+01 kcal/mol
                GaussFluct  -0.579936E+01 kcal/mol


     total cpu time spent up to now is       71.0 secs

     total energy              =     -34.40757805 Ry
     Harris-Foulkes estimate   =     -34.40783541 Ry
     estimated scf accuracy    <       0.00000521 Ry

     iteration #  4     ecut=    25.00 Ry     beta=0.40
     Davidson diagonalization with overlap
     ethr =  6.52E-08,  avg # of iterations =  2.0

     negative rho (up, down):  6.371E-03 0.000E+00

     3D-RISM Calculation

     convergence threshold    = 1.599E-04
     iter. #     1  RMS(g-h-1)= 6.242E-03  nbox=  0
     iter. #    11  RMS(g-h-1)= 1.581E-04  nbox=  9

     End of 3D-RISM calculation


     convergence has been achieved in    11 iterations


     solvent charge    0.00036, renormalised to    0.00000

     Total charge of solvent
     H2O          0.000352 e
     Na+          0.301111 e
     Cl-         -0.301105 e
     Total        0.000357 e

     Chemical potential of solvation
     H2O        Closure     -0.326136E+01 kcal/mol
                GaussFluct  -0.522734E+01 kcal/mol
     Na+        Closure     -0.134028E+01 kcal/mol
                GaussFluct  -0.135192E+01 kcal/mol
     Cl-        Closure      0.782485E+00 kcal/mol
                GaussFluct   0.767839E+00 kcal/mol
     Total      Closure     -0.381916E+01 kcal/mol
                GaussFluct  -0.581143E+01 kcal/mol


     total cpu time spent up to now is       72.4 secs

     total energy              =     -34.40758189 Ry
     Harris-Foulkes estimate   =     -34.40761777 Ry
     estimated scf accuracy    <       0.00000111 Ry

     iteration #  5     ecut=    25.00 Ry     beta=0.40
     Davidson diagonalization with overlap
     ethr =  1.38E-08,  avg # of iterations =  2.0

     negative rho (up, down):  6.370E-03 0.000E+00

     3D-RISM Calculation

     convergence threshold    = 1.599E-04
     iter. #     1  RMS(g-h-1)= 1.687E-03  nbox=  0
     iter. #     6  RMS(g-h-1)= 1.561E-04  nbox=  4

     End of 3D-RISM calculation


     convergence has been achieved in     6 iterations


     solvent charge   -0.00004, renormalised to    0.00000

     Total charge of solvent
     H2O         -0.000042 e
     Na+          0.301108 e
     Cl-         -0.301108 e
     Total       -0.000043 e

     Chemical potential of solvation
     H2O        Closure     -0.326227E+01 kcal/mol
                GaussFluct  -0.522833E+01 kcal/mol
     Na+        Closure     -0.134010E+01 kcal/mol
                GaussFluct  -0.135174E+01 kcal/mol
     Cl-        Closure      0.782415E+00 kcal/mol
                GaussFluct   0.767767E+00 kcal/mol
     Total      Closure     -0.381996E+01 kcal/mol
                GaussFluct  -0.581230E+01 kcal/mol


     total cpu time spent up to now is       73.3 secs

     total energy              =     -34.40758085 Ry
     Harris-Foulkes estimate   =     -34.40758481 Ry
     estimated scf accuracy    <       0.00000021 Ry

     iteration #  6     ecut=    25.00 Ry     beta=0.40
     Davidson diagonalization with overlap
     ethr =  2.57E-09,  avg # of iterations =  2.0

     negative rho (up, down):  6.370E-03 0.000E+00

     3D-RISM Calculation

     convergence threshold    = 1.599E-04
     iter. #     1  RMS(g-h-1)= 5.654E-04  nbox=  0
     iter. #     5  RMS(g-h-1)= 1.524E-04  nbox=  3

     End of 3D-RISM calculation


     convergence has been achieved in     5 iterations


     solvent charge   -0.00005, renormalised to    0.00000

     Total charge of solvent
     H2O         -0.000054 e
     Na+          0.301108 e
     Cl-         -0.301109 e
     Total       -0.000055 e

     Chemical potential of solvation
     H2O        Closure     -0.326066E+01 kcal/mol
                GaussFluct  -0.522674E+01 kcal/mol
     Na+        Closure     -0.134006E+01 kcal/mol
                GaussFluct  -0.135170E+01 kcal/mol
     Cl-        Closure      0.782444E+00 kcal/mol
                GaussFluct   0.767796E+00 kcal/mol
     Total      Closure     -0.381828E+01 kcal/mol
                GaussFluct  -0.581064E+01 kcal/mol


     total cpu time spent up to now is       74.1 secs

     total energy              =     -34.40758132 Ry
     Harris-Foulkes estimate   =     -34.40757558 Ry
     estimated scf accuracy    <       0.00000003 Ry

     iteration #  7     ecut=    25.00 Ry     beta=0.40
     Davidson diagonalization with overlap
     ethr =  3.97E-10,  avg # of iterations =  2.0

     negative rho (up, down):  6.368E-03 0.000E+00

     3D-RISM Calculation

     convergence threshold    = 1.599E-04
     iter. #     1  RMS(g-h-1)= 3.574E-04  nbox=  0
     iter. #     4  RMS(g-h-1)= 1.521E-04  nbox=  3

     End of 3D-RISM calculation


     convergence has been achieved in     4 iterations


     solvent charge    0.00003, renormalised to    0.00000

     Total charge of solvent
     H2O          0.000034 e
     Na+          0.301108 e
     Cl-         -0.301108 e
     Total        0.000035 e

     Chemical potential of solvation
     H2O        Closure     -0.326104E+01 kcal/mol
                GaussFluct  -0.522709E+01 kcal/mol
     Na+        Closure     -0.134016E+01 kcal/mol
                GaussFluct  -0.135180E+01 kcal/mol
     Cl-        Closure      0.782442E+00 kcal/mol
                GaussFluct   0.767795E+00 kcal/mol
     Total      Closure     -0.381875E+01 kcal/mol
                GaussFluct  -0.581110E+01 kcal/mol


     total cpu time spent up to now is       74.8 secs

     End of self-consistent calculation

          k = 0.0000 0.0000 0.0000 (  7122 PWs)   bands (ev):

   -25.5640 -13.3573  -9.9264  -7.9718

     highest occupied level (ev):    -7.9718

!    total energy              =     -34.40758290 Ry
     Harris-Foulkes estimate   =     -34.40758283 Ry
     estimated scf accuracy    <          1.5E-09 Ry

     The total energy is the sum of the following terms:

     one-electron contribution =     -63.22386616 Ry
     hartree contribution      =      33.12419132 Ry
     xc contribution           =      -8.36766350 Ry
     ewald contribution        =       4.07193472 Ry
     solvation energy (RISM)   =      -0.01217928 Ry

     convergence has been achieved in   7 iterations

     Forces acting on atoms (cartesian axes, Ry/au):

     atom    1 type  1   force =     0.00000000   -0.00389538    0.00000000
     atom    2 type  2   force =     0.00252220    0.00194769    0.00000000
     atom    3 type  2   force =    -0.00252220    0.00194769    0.00000000

     Total force =     0.004507     Total SCF correction =     0.000028

     number of scf cycles    =   5
     number of bfgs steps    =   4

     energy   old            =     -34.4074452666 Ry
     energy   new            =     -34.4075828975 Ry

     CASE: energy  _new < energy  _old

     new trust radius        =       0.0033822878 bohr
     new conv_thr            =       0.0000000138 Ry


ATOMIC_POSITIONS (angstrom)
O        5.000000000   5.000000000   5.000000000    0   0   0
H        5.776871293   5.598649678   5.000000000
H        4.223128707   5.598649678   5.000000000



     Writing output data file H2O.NaCl_aq.save
     Check: negative starting charge=   -0.004004
     NEW-OLD atomic charge density approx. for the potential
     Check: negative starting charge=   -0.004007

     negative rho (up, down):  6.358E-03 0.000E+00

     3D-RISM Calculation

     convergence threshold    = 1.083E-02
     iter. #     1  RMS(g-h-1)= 1.199E-02  nbox=  0
     iter. #     2  RMS(g-h-1)= 2.389E-03  nbox=  1

     End of 3D-RISM calculation


     convergence has been achieved in     2 iterations


     solvent charge    0.00804, renormalised to    0.00000

     Total charge of solvent
     H2O          0.007906 e
     Na+          0.301084 e
     Cl-         -0.300945 e
     Total        0.008044 e

     Chemical potential of solvation
     H2O        Closure     -0.326591E+01 kcal/mol
                GaussFluct  -0.523012E+01 kcal/mol
     Na+        Closure     -0.133959E+01 kcal/mol
                GaussFluct  -0.135120E+01 kcal/mol
     Cl-        Closure      0.783028E+00 kcal/mol
                GaussFluct   0.768467E+00 kcal/mol
     Total      Closure     -0.382247E+01 kcal/mol
                GaussFluct  -0.581285E+01 kcal/mol


     total cpu time spent up to now is       77.9 secs

     per-process dynamical memory:   112.5 Mb

     Self-consistent Calculation

     iteration #  1     ecut=    25.00 Ry     beta=0.40
     Davidson diagonalization with overlap
     ethr =  1.00E-06,  avg # of iterations =  2.0

     Threshold (ethr) on eigenvalues was too large:
     Diagonalizing with lowered threshold

     Davidson diagonalization with overlap
     ethr =  8.72E-08,  avg # of iterations =  1.0

     negative rho (up, down):  6.356E-03 0.000E+00

     3D-RISM Calculation

     convergence threshold    = 1.173E-04
     iter. #     1  RMS(g-h-1)= 7.786E-03  nbox=  0
     iter. #    11  RMS(g-h-1)= 1.608E-04  nbox=  9
     iter. #    21  RMS(g-h-1)= 1.450E-04  nbox= 10
     iter. #    31  RMS(g-h-1)= 1.378E-04  nbox=  6
     iter. #    41  RMS(g-h-1)= 1.334E-04  nbox= 10
     iter. #    51  RMS(g-h-1)= 1.291E-04  nbox= 10
     iter. #    61  RMS(g-h-1)= 1.244E-04  nbox=  4
     iter. #    71  RMS(g-h-1)= 1.197E-04  nbox= 10
     iter. #    77  RMS(g-h-1)= 1.172E-04  nbox=  4

     End of 3D-RISM calculation


     convergence has been achieved in    77 iterations


     solvent charge    0.00000, renormalised to    0.00000

     Total charge of solvent
     H2O          0.000001 e
     Na+          0.301107 e
     Cl-         -0.301107 e
     Total        0.000001 e

     Chemical potential of solvation
     H2O        Closure     -0.323239E+01 kcal/mol
                GaussFluct  -0.519789E+01 kcal/mol
     Na+        Closure     -0.133869E+01 kcal/mol
                GaussFluct  -0.135032E+01 kcal/mol
     Cl-        Closure      0.783436E+00 kcal/mol
                GaussFluct   0.768795E+00 kcal/mol
     Total      Closure     -0.378765E+01 kcal/mol
                GaussFluct  -0.577942E+01 kcal/mol


     total cpu time spent up to now is       84.8 secs

     total energy              =     -34.40759786 Ry
     Harris-Foulkes estimate   =     -34.40750708 Ry
     estimated scf accuracy    <       0.00000707 Ry

     iteration #  2     ecut=    25.00 Ry     beta=0.40
     Davidson diagonalization with overlap
     ethr =  8.83E-08,  avg # of iterations =  3.0

     negative rho (up, down):  6.357E-03 0.000E+00

     3D-RISM Calculation

     convergence threshold    = 1.173E-04
     iter. #     1  RMS(g-h-1)= 3.752E-03  nbox=  0
     iter. #    11  RMS(g-h-1)= 1.185E-04  nbox=  9
     iter. #    13  RMS(g-h-1)= 1.168E-04  nbox= 10

     End of 3D-RISM calculation


     convergence has been achieved in    13 iterations


     solvent charge   -0.00007, renormalised to    0.00000

     Total charge of solvent
     H2O         -0.000071 e
     Na+          0.301106 e
     Cl-         -0.301107 e
     Total       -0.000072 e

     Chemical potential of solvation
     H2O        Closure     -0.324802E+01 kcal/mol
                GaussFluct  -0.521374E+01 kcal/mol
     Na+        Closure     -0.133935E+01 kcal/mol
                GaussFluct  -0.135098E+01 kcal/mol
     Cl-        Closure      0.782905E+00 kcal/mol
                GaussFluct   0.768261E+00 kcal/mol
     Total      Closure     -0.380446E+01 kcal/mol
                GaussFluct  -0.579646E+01 kcal/mol


     total cpu time spent up to now is       86.3 secs

     total energy              =     -34.40760067 Ry
     Harris-Foulkes estimate   =     -34.40765551 Ry
     estimated scf accuracy    <       0.00000137 Ry

     iteration #  3     ecut=    25.00 Ry     beta=0.40
     Davidson diagonalization with overlap
     ethr =  1.72E-08,  avg # of iterations =  1.0

     negative rho (up, down):  6.359E-03 0.000E+00

     3D-RISM Calculation

     convergence threshold    = 1.173E-04
     iter. #     1  RMS(g-h-1)= 4.192E-03  nbox=  0
     iter. #    11  RMS(g-h-1)= 1.183E-04  nbox=  9
     iter. #    14  RMS(g-h-1)= 1.170E-04  nbox= 10

     End of 3D-RISM calculation


     convergence has been achieved in    14 iterations


     solvent charge   -0.00002, renormalised to    0.00000

     Total charge of solvent
     H2O         -0.000021 e
     Na+          0.301107 e
     Cl-         -0.301107 e
     Total       -0.000022 e

     Chemical potential of solvation
     H2O        Closure     -0.326955E+01 kcal/mol
                GaussFluct  -0.523556E+01 kcal/mol
     Na+        Closure     -0.134041E+01 kcal/mol
                GaussFluct  -0.135205E+01 kcal/mol
     Cl-        Closure      0.782252E+00 kcal/mol
                GaussFluct   0.767604E+00 kcal/mol
     Total      Closure     -0.382770E+01 kcal/mol
                GaussFluct  -0.582001E+01 kcal/mol


     total cpu time spent up to now is       87.9 secs

     total energy              =     -34.40759900 Ry
     Harris-Foulkes estimate   =     -34.40767489 Ry
     estimated scf accuracy    <       0.00000032 Ry

     iteration #  4     ecut=    25.00 Ry     beta=0.40
     Davidson diagonalization with overlap
     ethr =  4.05E-09,  avg # of iterations =  2.0

     negative rho (up, down):  6.359E-03 0.000E+00

     3D-RISM Calculation

     convergence threshold    = 1.173E-04
     iter. #     1  RMS(g-h-1)= 1.226E-03  nbox=  0
     iter. #    11  RMS(g-h-1)= 1.173E-04  nbox=  9
     iter. #    12  RMS(g-h-1)= 1.171E-04  nbox= 10

     End of 3D-RISM calculation


     convergence has been achieved in    12 iterations


     solvent charge    0.00006, renormalised to    0.00000

     Total charge of solvent
     H2O          0.000060 e
     Na+          0.301108 e
     Cl-         -0.301107 e
     Total        0.000061 e

     Chemical potential of solvation
     H2O        Closure     -0.327673E+01 kcal/mol
                GaussFluct  -0.524285E+01 kcal/mol
     Na+        Closure     -0.134087E+01 kcal/mol
                GaussFluct  -0.135251E+01 kcal/mol
     Cl-        Closure      0.782065E+00 kcal/mol
                GaussFluct   0.767415E+00 kcal/mol
     Total      Closure     -0.383554E+01 kcal/mol
                GaussFluct  -0.582794E+01 kcal/mol


     total cpu time spent up to now is       89.3 secs

     total energy              =     -34.40759891 Ry
     Harris-Foulkes estimate   =     -34.40762404 Ry
     estimated scf accuracy    <       0.00000004 Ry

     iteration #  5     ecut=    25.00 Ry     beta=0.40
     Davidson diagonalization with overlap
     ethr =  5.58E-10,  avg # of iterations =  2.0

     negative rho (up, down):  6.358E-03 0.000E+00

     3D-RISM Calculation

     convergence threshold    = 1.173E-04
     iter. #     1  RMS(g-h-1)= 9.329E-04  nbox=  0
     iter. #     8  RMS(g-h-1)= 1.172E-04  nbox=  6

     End of 3D-RISM calculation


     convergence has been achieved in     8 iterations


     solvent charge   -0.00008, renormalised to    0.00000

     Total charge of solvent
     H2O         -0.000074 e
     Na+          0.301107 e
     Cl-         -0.301108 e
     Total       -0.000075 e

     Chemical potential of solvation
     H2O        Closure     -0.328088E+01 kcal/mol
                GaussFluct  -0.524709E+01 kcal/mol
     Na+        Closure     -0.134103E+01 kcal/mol
                GaussFluct  -0.135268E+01 kcal/mol
     Cl-        Closure      0.781915E+00 kcal/mol
                GaussFluct   0.767264E+00 kcal/mol
     Total      Closure     -0.384000E+01 kcal/mol
                GaussFluct  -0.583251E+01 kcal/mol


     total cpu time spent up to now is       90.2 secs

     End of self-consistent calculation

          k = 0.0000 0.0000 0.0000 (  7122 PWs)   bands (ev):

   -25.5505 -13.3378  -9.9291  -7.9700

     highest occupied level (ev):    -7.9700

!    total energy              =     -34.40759992 Ry
     Harris-Foulkes estimate   =     -34.40761317 Ry
     estimated scf accuracy    <          7.7E-09 Ry

     The total energy is the sum of the following terms:

     one-electron contribution =     -63.19217460 Ry
     hartree contribution      =      33.10976376 Ry
     xc contribution           =      -8.36526486 Ry
     ewald contribution        =       4.05232283 Ry
     solvation energy (RISM)   =      -0.01224706 Ry

     convergence has been achieved in   5 iterations

     Forces acting on atoms (cartesian axes, Ry/au):

     atom    1 type  1   force =     0.00000000   -0.00056659    0.00000000
     atom    2 type  2   force =     0.00059676    0.00028329    0.00000000
     atom    3 type  2   force =    -0.00059676    0.00028329    0.00000000

     Total force =     0.000934     Total SCF correction =     0.000018

     bfgs converged in   6 scf cycles and   5 bfgs steps
     (criteria: energy <  1.0E-04 Ry, force <  1.0E-03 Ry/Bohr)

     End of BFGS Geometry Optimization

     Final energy   =     -34.4075999224 Ry
Begin final coordinates

ATOMIC_POSITIONS (angstrom)
O        5.000000000   5.000000000   5.000000000    0   0   0
H        5.776871293   5.598649678   5.000000000
H        4.223128707   5.598649678   5.000000000
End final coordinates



     Writing output data file H2O.NaCl_aq.save

     init_run     :      2.92s CPU      2.97s WALL (       1 calls)
     electrons    :     68.52s CPU     69.92s WALL (       6 calls)
     update_pot   :      2.11s CPU      2.21s WALL (       5 calls)
     forces       :      7.88s CPU      7.88s WALL (       6 calls)

     Called by init_run:
     wfcinit      :      0.01s CPU      0.01s WALL (       1 calls)
     potinit      :      2.50s CPU      2.54s WALL (       1 calls)

     Called by electrons:
     c_bands      :      0.83s CPU      0.85s WALL (      38 calls)
     sum_band     :      4.37s CPU      4.39s WALL (      38 calls)
     v_of_rho     :      8.12s CPU      8.16s WALL (      43 calls)
     newd         :      2.74s CPU      2.75s WALL (      43 calls)
     mix_rho      :      0.79s CPU      0.79s WALL (      38 calls)

     Called by c_bands:
     init_us_2    :      0.04s CPU      0.04s WALL (      77 calls)
     regterg      :      0.79s CPU      0.80s WALL (      38 calls)

     Called by sum_band:
     sum_band:bec :      0.00s CPU      0.00s WALL (      38 calls)
     addusdens    :      2.93s CPU      2.93s WALL (      38 calls)

     Called by *egterg:
     h_psi        :      0.69s CPU      0.70s WALL (     116 calls)
     s_psi        :      0.02s CPU      0.02s WALL (     116 calls)
     g_psi        :      0.00s CPU      0.01s WALL (      77 calls)
     rdiaghg      :      0.00s CPU      0.01s WALL (     109 calls)

     Called by h_psi:
     h_psi:pot    :      0.68s CPU      0.69s WALL (     116 calls)
     h_psi:calbec :      0.03s CPU      0.03s WALL (     116 calls)
     vloc_psi     :      0.64s CPU      0.65s WALL (     116 calls)
     add_vuspsi   :      0.02s CPU      0.02s WALL (     116 calls)

     General routines
     calbec       :      0.04s CPU      0.04s WALL (     178 calls)
     fft          :      7.86s CPU      7.86s WALL (     814 calls)
     ffts         :      0.15s CPU      0.15s WALL (      81 calls)
     fftw         :      0.55s CPU      0.57s WALL (     524 calls)
     fftc         :     22.79s CPU     22.85s WALL (    5705 calls)
     interpolate  :      0.96s CPU      0.96s WALL (      81 calls)
     davcio       :      0.00s CPU      0.00s WALL (       6 calls)

     Parallel routines
     fft_scatter  :     12.95s CPU     12.93s WALL (    7124 calls)

     RISM routines
     1DRISM_pre   :      0.02s CPU      0.02s WALL (       1 calls)
     1DRISM_run   :      1.29s CPU      1.29s WALL (       1 calls)
     3DRISM_pre   :      0.92s CPU      0.92s WALL (       1 calls)
     3DRISM_run   :     53.73s CPU     55.03s WALL (      43 calls)
     3DRISM_ions  :      3.92s CPU      3.91s WALL (       5 calls)
     3DRISM_for   :      6.34s CPU      6.34s WALL (       6 calls)
     3DRISM_vsol  :      0.45s CPU      0.45s WALL (      43 calls)
     3DRISM_esol  :      0.06s CPU      0.06s WALL (      43 calls)

     PWSCF        :  1m29.96s CPU     1m31.83s WALL


   This run was terminated on:   1:35:38   1Mar2017            

=------------------------------------------------------------------------------=
   JOB DONE.
=------------------------------------------------------------------------------=
