
     Program PWSCF v.6.1 starts on 27Mar2017 at 19:38:32 

     This program is part of the open-source Quantum ESPRESSO suite
     for quantum simulation of materials; please cite
         "P. Giannozzi et al., J. Phys.:Condens. Matter 21 395502 (2009);
          URL http://www.quantum-espresso.org", 
     in publications or presentations arising from this work. More details at
     http://www.quantum-espresso.org/quote

     Parallel version (MPI & OpenMP), running on       6 processor cores
     Number of MPI processes:                 6
     Threads/MPI process:                     1
     R & G space division:  proc/nbgrp/npool/nimage =       6
     Waiting for input...
     Reading input from standard input

     Current dimensions of program PWSCF are:
     Max number of different atomic species (ntypx) = 10
     Max number of k-points (npk) =  40000
     Max angular momentum in pseudopotentials (lmaxx) =  3

     gamma-point specific algorithms are used

     Subspace diagonalization in iterative solution of the eigenvalue problem:
     a serial algorithm will be used


     Molecule # 1 for H2O read from file:
     /home/nisihara/QE/espresso/pseudo/H2O.spc.MOL
     Density:
         0.33427968E+02 cell^-1
         0.49535137E-02 bohr^-3
         0.55508435E+02 mol/L
         0.10000000E+01 g/cm^3
     Number of atoms:   3
     Atoms: 
       #  atom      X (angs)      Y (angs)      Z (angs)      Q (e)         E (kcal/mol)  S (angs)
       1  O/h2o     0.00000000    0.00000000    0.00000000   -0.82000000    0.15540000    3.16600000
       2  H/h2o     0.81649000    0.57736000    0.00000000    0.41000000    0.04600000    1.00000000
       3  H/h2o    -0.81649000    0.57736000    0.00000000    0.41000000    0.04600000    1.00000000


     1D-RISM info
     ------------
     closure equation        =           KH
     temperature             =     300.0000  kelvin
     coulomb smearing radius =       2.0000  bohr
     number of solvent sites =            3
     number of grids         =         1252
     maximum of R-space      =     249.8003  bohr
     maximum of G-space      =      15.7268  bohr^-1
     number of iterations    =        40000
     convergence threshold   =      1.0E-08
     Gaussian width of bonds =       0.0000  bohr
     size of MDIIS           =           20
     step of MDIIS           =       0.5000
     number of processes     =            6


     1D-RISM Calculation

     iter. #     1  RMS(g-h-1)= 5.244E-04  nbox=  0  T= 2400.00K
     iter. #   101  RMS(g-h-1)= 6.645E-06  nbox=  4  T=  711.11K
     iter. #   201  RMS(g-h-1)= 6.988E-06  nbox=  2  T=  316.05K
     iter. #   282  RMS(g-h-1)= 3.434E-09  nbox=  5  T=  300.00K

     End of 1D-RISM calculation


     convergence has been achieved in   282 iterations


     Chemical potential of solvation

     H2O        H2O        Closure     -0.260139E+01 kcal/mol
                           GaussFluct  -0.612483E+01 kcal/mol

                Total      Closure     -0.260139E+01 kcal/mol
                           GaussFluct  -0.612483E+01 kcal/mol


     Parallelization info
     --------------------
     sticks:   dense  smooth     PW     G-vecs:    dense   smooth      PW
     Min        1064     473    118                64095    18966    2372
     Max        1065     476    122                64100    18969    2376
     Sum        6385    2845    717               384587   113801   14243



     bravais-lattice index     =            1
     lattice parameter (alat)  =      18.8973  a.u.
     unit-cell volume          =    6748.3346 (a.u.)^3
     number of atoms/cell      =            4
     number of atomic types    =            3
     number of electrons       =        12.00
     number of Kohn-Sham states=            6
     kinetic-energy cutoff     =      25.0000  Ry
     charge density cutoff     =     225.0000  Ry
     convergence threshold     =      1.0E-06
     mixing beta               =       0.4000
     number of iterations used =            8  plain     mixing
     Exchange-correlation      =  SLA  LYP  B88  BLYP ( 1  3  1  3 0 0)

     celldm(1)=  18.897261  celldm(2)=   0.000000  celldm(3)=   0.000000
     celldm(4)=   0.000000  celldm(5)=   0.000000  celldm(6)=   0.000000

     crystal axes: (cart. coord. in units of alat)
               a(1) = (   1.000000   0.000000   0.000000 )  
               a(2) = (   0.000000   1.000000   0.000000 )  
               a(3) = (   0.000000   0.000000   1.000000 )  

     reciprocal axes: (cart. coord. in units 2 pi/alat)
               b(1) = (  1.000000  0.000000  0.000000 )  
               b(2) = (  0.000000  1.000000  0.000000 )  
               b(3) = (  0.000000  0.000000  1.000000 )  


     PseudoPot. # 1 for C  read from file:
     /home/nisihara/QE/espresso/pseudo/C.blyp-van_ak.UPF
     MD5 check sum: 5806918ff79756457e631533c25b08f6
     Pseudo is Ultrasoft, Zval =  4.0
     Generated by new atomic code, or converted to UPF format
     Using radial grid of  721 points,  4 beta functions with: 
                l(1) =   0
                l(2) =   0
                l(3) =   1
                l(4) =   1
     Q(r) pseudized with  8 coefficients,  rinner =    0.800   0.800   0.800


     PseudoPot. # 2 for O  read from file:
     /home/nisihara/QE/espresso/pseudo/O.blyp-van_ak.UPF
     MD5 check sum: 183ffcd2817aedfb9c735dec17c858da
     Pseudo is Ultrasoft, Zval =  6.0
     Generated by new atomic code, or converted to UPF format
     Using radial grid of  737 points,  4 beta functions with: 
                l(1) =   0
                l(2) =   0
                l(3) =   1
                l(4) =   1
     Q(r) pseudized with  8 coefficients,  rinner =    0.800   0.800   0.800


     PseudoPot. # 3 for H  read from file:
     /home/nisihara/QE/espresso/pseudo/H.blyp-van_ak.UPF
     MD5 check sum: 43b56d53567289e609a4f62df139f449
     Pseudo is Ultrasoft, Zval =  1.0
     Generated by new atomic code, or converted to UPF format
     Using radial grid of  615 points,  1 beta functions with: 
                l(1) =   0
     Q(r) pseudized with  8 coefficients,  rinner =    0.800

     atomic species   valence    mass     pseudopotential
        C              4.00    12.01070     C ( 1.00)
        O              6.00    15.99940     O ( 1.00)
        H              1.00     1.00794     H ( 1.00)

      4 Sym. Ops. (no inversion) found



   Cartesian axes

     site n.     atom                  positions (alat units)
         1           C   tau(   1) = (   0.5000000   0.5609000   0.5000000  )
         2           O   tau(   2) = (   0.5000000   0.4425000   0.5000000  )
         3           H   tau(   3) = (   0.4075000   0.6191000   0.5000000  )
         4           H   tau(   4) = (   0.5925000   0.6191000   0.5000000  )

     number of k points=     1
                       cart. coord. in units 2pi/alat
        k(    1) = (   0.0000000   0.0000000   0.0000000), wk =   2.0000000

     Dense  grid:   192294 G-vectors     FFT dimensions: (  96,  96,  96)

     Smooth grid:    56901 G-vectors     FFT dimensions: (  64,  64,  64)

     Estimated max dynamical RAM per process >      25.08MB

     Estimated total allocated dynamical RAM >     150.49MB

     Solute:
       # atom     E (kcal/mol)  S (angs)
       1  C       0.07000000    3.55000000    OPLS-AA
       2  O       0.17000000    3.00000000    OPLS-AA
       3  H       0.03000000    2.46000000    OPLS-AA
       4  H       0.03000000    2.46000000    OPLS-AA


     3D-RISM info
     ------------
     closure equation        =           KH
     temperature             =     300.0000  kelvin
     coulomb smearing radius =       2.0000  bohr
     number of solvent sites =            2
     solvent sites           =    O/h2o   H/h2o
     number of iterations    =         2000
     convergence threshold   =      1.0E-04
     size of MDIIS           =           10
     step of MDIIS           =       0.8000
     solvent cutoff          =     144.0000  Ry
     Custom grid:    98475 G-vectors     FFT dimensions: (  75,  75,  75)


     Initial potential from superposition of free atoms
     Check: negative starting charge=   -0.003891

     starting charge   11.99993, renormalised to   12.00000

     negative rho (up, down):  3.891E-03 0.000E+00

     3D-RISM Calculation

     convergence threshold    = 1.000E-02
     iter. #     1  RMS(g-h-1)= 2.299E+00  nbox=  0
     iter. #    11  RMS(g-h-1)= 5.947E-02  nbox=  9
     iter. #    21  RMS(g-h-1)= 7.982E-03  nbox= 10

     End of 3D-RISM calculation


     convergence has been achieved in    21 iterations


     solvent charge    0.05353, renormalised to    0.00000

     Total charge of solvent
     H2O          0.053531 e
     Total        0.053531 e

     Chemical potential of solvation
     H2O        Closure      0.993941E+01 kcal/mol
                GaussFluct   0.698507E+01 kcal/mol
     Total      Closure      0.993941E+01 kcal/mol
                GaussFluct   0.698507E+01 kcal/mol

     Starting wfc are   10 randomized atomic wfcs

     total cpu time spent up to now is        1.5 secs

     per-process dynamical memory:    59.3 Mb

     Self-consistent Calculation

     iteration #  1     ecut=    25.00 Ry     beta=0.40
     Davidson diagonalization with overlap
     ethr =  1.00E-02,  avg # of iterations =  2.0

     negative rho (up, down):  1.991E-03 0.000E+00

     3D-RISM Calculation

     convergence threshold    = 1.000E-02
     iter. #     1  RMS(g-h-1)= 5.428E-01  nbox=  0
     iter. #    11  RMS(g-h-1)= 2.861E-02  nbox=  9
     iter. #    20  RMS(g-h-1)= 9.917E-03  nbox= 10

     End of 3D-RISM calculation


     convergence has been achieved in    20 iterations


     solvent charge   -0.11019, renormalised to    0.00000

     Total charge of solvent
     H2O         -0.110192 e
     Total       -0.110192 e

     Chemical potential of solvation
     H2O        Closure      0.801507E+01 kcal/mol
                GaussFluct   0.505415E+01 kcal/mol
     Total      Closure      0.801507E+01 kcal/mol
                GaussFluct   0.505415E+01 kcal/mol


     total cpu time spent up to now is        2.2 secs

     total energy              =     -45.58969470 Ry
     Harris-Foulkes estimate   =     -45.77236901 Ry
     estimated scf accuracy    <       0.46519564 Ry

     iteration #  2     ecut=    25.00 Ry     beta=0.40
     Davidson diagonalization with overlap
     ethr =  3.88E-03,  avg # of iterations =  2.0

     negative rho (up, down):  2.700E-03 0.000E+00

     3D-RISM Calculation

     convergence threshold    = 1.000E-02
     iter. #     1  RMS(g-h-1)= 2.060E-01  nbox=  0
     iter. #    11  RMS(g-h-1)= 1.164E-02  nbox=  9
     iter. #    12  RMS(g-h-1)= 9.891E-03  nbox= 10

     End of 3D-RISM calculation


     convergence has been achieved in    12 iterations


     solvent charge   -0.11555, renormalised to    0.00000

     Total charge of solvent
     H2O         -0.115555 e
     Total       -0.115555 e

     Chemical potential of solvation
     H2O        Closure      0.677687E+01 kcal/mol
                GaussFluct   0.379113E+01 kcal/mol
     Total      Closure      0.677687E+01 kcal/mol
                GaussFluct   0.379113E+01 kcal/mol


     total cpu time spent up to now is        2.7 secs

     total energy              =     -45.63884211 Ry
     Harris-Foulkes estimate   =     -45.66047305 Ry
     estimated scf accuracy    <       0.06406035 Ry

     iteration #  3     ecut=    25.00 Ry     beta=0.40
     Davidson diagonalization with overlap
     ethr =  5.34E-04,  avg # of iterations =  2.0

     negative rho (up, down):  5.961E-03 0.000E+00

     3D-RISM Calculation

     convergence threshold    = 3.698E-03
     iter. #     1  RMS(g-h-1)= 1.771E-01  nbox=  0
     iter. #    11  RMS(g-h-1)= 1.104E-02  nbox=  9
     iter. #    16  RMS(g-h-1)= 3.301E-03  nbox= 10

     End of 3D-RISM calculation


     convergence has been achieved in    16 iterations


     solvent charge   -0.01764, renormalised to    0.00000

     Total charge of solvent
     H2O         -0.017637 e
     Total       -0.017637 e

     Chemical potential of solvation
     H2O        Closure      0.529156E+01 kcal/mol
                GaussFluct   0.236447E+01 kcal/mol
     Total      Closure      0.529156E+01 kcal/mol
                GaussFluct   0.236447E+01 kcal/mol


     total cpu time spent up to now is        3.3 secs

     total energy              =     -45.63620367 Ry
     Harris-Foulkes estimate   =     -45.64820376 Ry
     estimated scf accuracy    <       0.01499703 Ry

     iteration #  4     ecut=    25.00 Ry     beta=0.40
     Davidson diagonalization with overlap
     ethr =  1.25E-04,  avg # of iterations =  3.0

     negative rho (up, down):  5.151E-03 0.000E+00

     3D-RISM Calculation

     convergence threshold    = 1.174E-03
     iter. #     1  RMS(g-h-1)= 2.699E-02  nbox=  0
     iter. #    11  RMS(g-h-1)= 1.008E-03  nbox=  9

     End of 3D-RISM calculation


     convergence has been achieved in    11 iterations


     solvent charge    0.00180, renormalised to    0.00000

     Total charge of solvent
     H2O          0.001801 e
     Total        0.001801 e

     Chemical potential of solvation
     H2O        Closure      0.500338E+01 kcal/mol
                GaussFluct   0.208082E+01 kcal/mol
     Total      Closure      0.500338E+01 kcal/mol
                GaussFluct   0.208082E+01 kcal/mol


     total cpu time spent up to now is        3.8 secs

     total energy              =     -45.63964444 Ry
     Harris-Foulkes estimate   =     -45.64011752 Ry
     estimated scf accuracy    <       0.00634374 Ry

     iteration #  5     ecut=    25.00 Ry     beta=0.40
     Davidson diagonalization with overlap
     ethr =  5.29E-05,  avg # of iterations =  1.0

     negative rho (up, down):  5.938E-03 0.000E+00

     3D-RISM Calculation

     convergence threshold    = 5.187E-04
     iter. #     1  RMS(g-h-1)= 7.314E-02  nbox=  0
     iter. #    11  RMS(g-h-1)= 2.227E-03  nbox=  9
     iter. #    21  RMS(g-h-1)= 4.813E-04  nbox= 10

     End of 3D-RISM calculation


     convergence has been achieved in    21 iterations


     solvent charge    0.00160, renormalised to    0.00000

     Total charge of solvent
     H2O          0.001601 e
     Total        0.001601 e

     Chemical potential of solvation
     H2O        Closure      0.336039E+01 kcal/mol
                GaussFluct   0.412845E+00 kcal/mol
     Total      Closure      0.336039E+01 kcal/mol
                GaussFluct   0.412845E+00 kcal/mol


     total cpu time spent up to now is        4.5 secs

     total energy              =     -45.63800094 Ry
     Harris-Foulkes estimate   =     -45.64500210 Ry
     estimated scf accuracy    <       0.00343703 Ry

     iteration #  6     ecut=    25.00 Ry     beta=0.40
     Davidson diagonalization with overlap
     ethr =  2.86E-05,  avg # of iterations =  3.0

     negative rho (up, down):  5.628E-03 0.000E+00

     3D-RISM Calculation

     convergence threshold    = 1.000E-04
     iter. #     1  RMS(g-h-1)= 1.822E-02  nbox=  0
     iter. #    11  RMS(g-h-1)= 5.790E-04  nbox=  9
     iter. #    21  RMS(g-h-1)= 3.099E-04  nbox= 10
     iter. #    31  RMS(g-h-1)= 2.503E-04  nbox=  2
     iter. #    41  RMS(g-h-1)= 2.058E-04  nbox= 10
     iter. #    51  RMS(g-h-1)= 1.796E-04  nbox=  6
     iter. #    61  RMS(g-h-1)= 1.563E-04  nbox= 10
     iter. #    71  RMS(g-h-1)= 1.378E-04  nbox= 10
     iter. #    81  RMS(g-h-1)= 1.239E-04  nbox=  4
     iter. #    91  RMS(g-h-1)= 1.125E-04  nbox= 10
     iter. #   101  RMS(g-h-1)= 1.037E-04  nbox=  8
     iter. #   106  RMS(g-h-1)= 9.922E-05  nbox= 10

     End of 3D-RISM calculation


     convergence has been achieved in   106 iterations


     solvent charge    0.00003, renormalised to    0.00000

     Total charge of solvent
     H2O          0.000028 e
     Total        0.000028 e

     Chemical potential of solvation
     H2O        Closure      0.366245E+01 kcal/mol
                GaussFluct   0.719406E+00 kcal/mol
     Total      Closure      0.366245E+01 kcal/mol
                GaussFluct   0.719406E+00 kcal/mol


     total cpu time spent up to now is        7.0 secs

     total energy              =     -45.63904004 Ry
     Harris-Foulkes estimate   =     -45.63793984 Ry
     estimated scf accuracy    <       0.00047537 Ry

     iteration #  7     ecut=    25.00 Ry     beta=0.40
     Davidson diagonalization with overlap
     ethr =  3.96E-06,  avg # of iterations =  3.0

     negative rho (up, down):  5.728E-03 0.000E+00

     3D-RISM Calculation

     convergence threshold    = 1.000E-04
     iter. #     1  RMS(g-h-1)= 8.916E-03  nbox=  0
     iter. #    11  RMS(g-h-1)= 1.633E-04  nbox=  9
     iter. #    21  RMS(g-h-1)= 1.029E-04  nbox= 10
     iter. #    23  RMS(g-h-1)= 9.888E-05  nbox= 10

     End of 3D-RISM calculation


     convergence has been achieved in    23 iterations


     solvent charge    0.00005, renormalised to    0.00000

     Total charge of solvent
     H2O          0.000050 e
     Total        0.000050 e

     Chemical potential of solvation
     H2O        Closure      0.351051E+01 kcal/mol
                GaussFluct   0.564320E+00 kcal/mol
     Total      Closure      0.351051E+01 kcal/mol
                GaussFluct   0.564320E+00 kcal/mol


     total cpu time spent up to now is        7.8 secs

     total energy              =     -45.63903287 Ry
     Harris-Foulkes estimate   =     -45.63960121 Ry
     estimated scf accuracy    <       0.00001473 Ry

     iteration #  8     ecut=    25.00 Ry     beta=0.40
     Davidson diagonalization with overlap
     ethr =  1.23E-07,  avg # of iterations =  3.0

     negative rho (up, down):  5.782E-03 0.000E+00

     3D-RISM Calculation

     convergence threshold    = 1.000E-04
     iter. #     1  RMS(g-h-1)= 4.897E-03  nbox=  0
     iter. #    11  RMS(g-h-1)= 2.488E-04  nbox=  9
     iter. #    21  RMS(g-h-1)= 9.940E-05  nbox= 10

     End of 3D-RISM calculation


     convergence has been achieved in    21 iterations


     solvent charge   -0.00004, renormalised to    0.00000

     Total charge of solvent
     H2O         -0.000036 e
     Total       -0.000036 e

     Chemical potential of solvation
     H2O        Closure      0.342104E+01 kcal/mol
                GaussFluct   0.473423E+00 kcal/mol
     Total      Closure      0.342104E+01 kcal/mol
                GaussFluct   0.473423E+00 kcal/mol


     total cpu time spent up to now is        8.5 secs

     total energy              =     -45.63898347 Ry
     Harris-Foulkes estimate   =     -45.63932566 Ry
     estimated scf accuracy    <       0.00003287 Ry

     iteration #  9     ecut=    25.00 Ry     beta=0.40
     Davidson diagonalization with overlap
     ethr =  1.23E-07,  avg # of iterations =  3.0

     negative rho (up, down):  5.893E-03 0.000E+00

     3D-RISM Calculation

     convergence threshold    = 1.000E-04
     iter. #     1  RMS(g-h-1)= 2.230E-03  nbox=  0
     iter. #    11  RMS(g-h-1)= 1.433E-04  nbox=  9
     iter. #    19  RMS(g-h-1)= 9.953E-05  nbox= 10

     End of 3D-RISM calculation


     convergence has been achieved in    19 iterations


     solvent charge    0.00018, renormalised to    0.00000

     Total charge of solvent
     H2O          0.000177 e
     Total        0.000177 e

     Chemical potential of solvation
     H2O        Closure      0.341105E+01 kcal/mol
                GaussFluct   0.463083E+00 kcal/mol
     Total      Closure      0.341105E+01 kcal/mol
                GaussFluct   0.463083E+00 kcal/mol


     total cpu time spent up to now is        9.2 secs

     End of self-consistent calculation

          k = 0.0000 0.0000 0.0000 (  7122 PWs)   bands (ev):

   -27.4247 -15.8807 -12.5938 -11.6086 -10.5270  -6.7178

     highest occupied level (ev):    -6.7178

!    total energy              =     -45.63888797 Ry
     Harris-Foulkes estimate   =     -45.63901921 Ry
     estimated scf accuracy    <       0.00000082 Ry

     The total energy is the sum of the following terms:

     one-electron contribution =    -100.76451684 Ry
     hartree contribution      =      52.13756978 Ry
     xc contribution           =     -11.75727409 Ry
     ewald contribution        =      14.73445418 Ry
     solvation energy (RISM)   =       0.01087900 Ry

     convergence has been achieved in   9 iterations

     Writing output data file HCHO.aq.save

     init_run     :      1.20s CPU      1.26s WALL (       1 calls)
     electrons    :      7.40s CPU      7.67s WALL (       1 calls)

     Called by init_run:
     wfcinit      :      0.01s CPU      0.01s WALL (       1 calls)
     potinit      :      0.92s CPU      0.95s WALL (       1 calls)

     Called by electrons:
     c_bands      :      0.13s CPU      0.14s WALL (       9 calls)
     sum_band     :      0.77s CPU      0.78s WALL (       9 calls)
     v_of_rho     :      1.00s CPU      1.00s WALL (      10 calls)
     newd         :      0.57s CPU      0.57s WALL (      10 calls)
     mix_rho      :      0.11s CPU      0.11s WALL (       9 calls)

     Called by c_bands:
     init_us_2    :      0.01s CPU      0.01s WALL (      19 calls)
     regterg      :      0.13s CPU      0.13s WALL (       9 calls)

     Called by sum_band:
     sum_band:bec :      0.00s CPU      0.00s WALL (       9 calls)
     addusdens    :      0.59s CPU      0.59s WALL (       9 calls)

     Called by *egterg:
     h_psi        :      0.11s CPU      0.11s WALL (      32 calls)
     s_psi        :      0.00s CPU      0.00s WALL (      32 calls)
     g_psi        :      0.00s CPU      0.00s WALL (      22 calls)
     rdiaghg      :      0.00s CPU      0.00s WALL (      31 calls)

     Called by h_psi:
     h_psi:pot    :      0.11s CPU      0.11s WALL (      32 calls)
     h_psi:calbec :      0.01s CPU      0.01s WALL (      32 calls)
     vloc_psi     :      0.10s CPU      0.10s WALL (      32 calls)
     add_vuspsi   :      0.00s CPU      0.00s WALL (      32 calls)

     General routines
     calbec       :      0.01s CPU      0.01s WALL (      41 calls)
     fft          :      0.94s CPU      0.95s WALL (     185 calls)
     ffts         :      0.01s CPU      0.01s WALL (      19 calls)
     fftw         :      0.07s CPU      0.07s WALL (     193 calls)
     fftc         :      1.80s CPU      1.84s WALL (    1110 calls)
     interpolate  :      0.12s CPU      0.12s WALL (      19 calls)
     davcio       :      0.00s CPU      0.00s WALL (       1 calls)

     Parallel routines
     fft_scatter  :      1.32s CPU      1.29s WALL (    1507 calls)

     RISM routines
     1DRISM_pre   :      0.00s CPU      0.00s WALL (       1 calls)
     1DRISM_run   :      0.15s CPU      0.16s WALL (       1 calls)
     3DRISM_pre   :      0.31s CPU      0.31s WALL (       1 calls)
     3DRISM_run   :      5.17s CPU      5.45s WALL (      10 calls)
     3DRISM_vsol  :      0.06s CPU      0.06s WALL (      10 calls)
     3DRISM_esol  :      0.00s CPU      0.00s WALL (      10 calls)

     PWSCF        :     8.89s CPU         9.28s WALL


   This run was terminated on:  19:38:41  27Mar2017            

=------------------------------------------------------------------------------=
   JOB DONE.
=------------------------------------------------------------------------------=
