
     Program PWSCF v.6.1 starts on  1Mar2017 at  1:35:39 

     This program is part of the open-source Quantum ESPRESSO suite
     for quantum simulation of materials; please cite
         "P. Giannozzi et al., J. Phys.:Condens. Matter 21 395502 (2009);
          URL http://www.quantum-espresso.org", 
     in publications or presentations arising from this work. More details at
     http://www.quantum-espresso.org/quote

     Parallel version (MPI & OpenMP), running on       4 processor cores
     Number of MPI processes:                 4
     Threads/MPI process:                     1
     R & G space division:  proc/nbgrp/npool/nimage =       4
     Waiting for input...
     Reading input from standard input

     Current dimensions of program PWSCF are:
     Max number of different atomic species (ntypx) = 10
     Max number of k-points (npk) =  40000
     Max angular momentum in pseudopotentials (lmaxx) =  3

     gamma-point specific algorithms are used

     Subspace diagonalization in iterative solution of the eigenvalue problem:
     a serial algorithm will be used


     Molecule # 1 for H2O read from file:
     /home/nisihara/QE/espresso/pseudo/H2O.spc.MOL
     Density:
         0.33427968E+02 cell^-1
         0.49535137E-02 bohr^-3
         0.55508435E+02 mol/L
         0.10000000E+01 g/cm^3
     Number of atoms:   3
     Atoms: 
       #  atom      X (angs)      Y (angs)      Z (angs)      Q (e)         E (kcal/mol)  S (angs)
       1  O/h2o     0.00000000    0.00000000    0.00000000   -0.82000000    0.15540000    3.16600000
       2  H/h2o     0.81649000    0.57736000    0.00000000    0.41000000    0.04600000    1.00000000
       3  H/h2o    -0.81649000    0.57736000    0.00000000    0.41000000    0.04600000    1.00000000


     1D-RISM info
     ------------
     closure equation        =           KH
     temperature             =     300.0000  kelvin
     coulomb smearing radius =       2.0000  bohr
     number of solvent sites =            3
     number of grids         =         1252
     maximum of R-space      =     249.8003  bohr
     maximum of G-space      =      15.7268  bohr^-1
     number of iterations    =        40000
     convergence threshold   =      1.0E-08
     Gaussian width of bonds =       0.0000  bohr
     size of MDIIS           =           20
     step of MDIIS           =       0.5000
     number of processes     =            4


     1D-RISM Calculation

     iter. #     1  RMS(g-h-1)= 5.244E-04  nbox=  0  T= 2400.00K
     iter. #   101  RMS(g-h-1)= 6.645E-06  nbox=  4  T=  711.11K
     iter. #   201  RMS(g-h-1)= 6.988E-06  nbox=  2  T=  316.05K
     iter. #   282  RMS(g-h-1)= 3.434E-09  nbox=  5  T=  300.00K

     End of 1D-RISM calculation


     convergence has been achieved in   282 iterations


     Chemical potential of solvation

     H2O        H2O        Closure     -0.260139E+01 kcal/mol
                           GaussFluct  -0.612483E+01 kcal/mol

                Total      Closure     -0.260139E+01 kcal/mol
                           GaussFluct  -0.612483E+01 kcal/mol


     Parallelization info
     --------------------
     sticks:   dense  smooth     PW     G-vecs:    dense   smooth      PW
     Min        1595     710    178                96144    28450    3560
     Max        1598     714    180                96150    28451    3562
     Sum        6385    2845    717               384587   113801   14243



     bravais-lattice index     =            1
     lattice parameter (alat)  =      18.8973  a.u.
     unit-cell volume          =    6748.3346 (a.u.)^3
     number of atoms/cell      =            4
     number of atomic types    =            3
     number of electrons       =        12.00
     number of Kohn-Sham states=            6
     kinetic-energy cutoff     =      25.0000  Ry
     charge density cutoff     =     225.0000  Ry
     convergence threshold     =      1.0E-06
     mixing beta               =       0.4000
     number of iterations used =            8  plain     mixing
     Exchange-correlation      =  SLA  LYP  B88  BLYP ( 1  3  1  3 0 0)

     celldm(1)=  18.897261  celldm(2)=   0.000000  celldm(3)=   0.000000
     celldm(4)=   0.000000  celldm(5)=   0.000000  celldm(6)=   0.000000

     crystal axes: (cart. coord. in units of alat)
               a(1) = (   1.000000   0.000000   0.000000 )  
               a(2) = (   0.000000   1.000000   0.000000 )  
               a(3) = (   0.000000   0.000000   1.000000 )  

     reciprocal axes: (cart. coord. in units 2 pi/alat)
               b(1) = (  1.000000  0.000000  0.000000 )  
               b(2) = (  0.000000  1.000000  0.000000 )  
               b(3) = (  0.000000  0.000000  1.000000 )  


     PseudoPot. # 1 for C  read from file:
     /home/nisihara/QE/espresso/pseudo/C.blyp-van_ak.UPF
     MD5 check sum: 5806918ff79756457e631533c25b08f6
     Pseudo is Ultrasoft, Zval =  4.0
     Generated by new atomic code, or converted to UPF format
     Using radial grid of  721 points,  4 beta functions with: 
                l(1) =   0
                l(2) =   0
                l(3) =   1
                l(4) =   1
     Q(r) pseudized with  8 coefficients,  rinner =    0.800   0.800   0.800


     PseudoPot. # 2 for O  read from file:
     /home/nisihara/QE/espresso/pseudo/O.blyp-van_ak.UPF
     MD5 check sum: 183ffcd2817aedfb9c735dec17c858da
     Pseudo is Ultrasoft, Zval =  6.0
     Generated by new atomic code, or converted to UPF format
     Using radial grid of  737 points,  4 beta functions with: 
                l(1) =   0
                l(2) =   0
                l(3) =   1
                l(4) =   1
     Q(r) pseudized with  8 coefficients,  rinner =    0.800   0.800   0.800


     PseudoPot. # 3 for H  read from file:
     /home/nisihara/QE/espresso/pseudo/H.blyp-van_ak.UPF
     MD5 check sum: 43b56d53567289e609a4f62df139f449
     Pseudo is Ultrasoft, Zval =  1.0
     Generated by new atomic code, or converted to UPF format
     Using radial grid of  615 points,  1 beta functions with: 
                l(1) =   0
     Q(r) pseudized with  8 coefficients,  rinner =    0.800

     atomic species   valence    mass     pseudopotential
        C              4.00    12.01070     C ( 1.00)
        O              6.00    15.99940     O ( 1.00)
        H              1.00     1.00794     H ( 1.00)

      4 Sym. Ops. (no inversion) found



   Cartesian axes

     site n.     atom                  positions (alat units)
         1           C   tau(   1) = (   0.5000000   0.5609000   0.5000000  )
         2           O   tau(   2) = (   0.5000000   0.4425000   0.5000000  )
         3           H   tau(   3) = (   0.4075000   0.6191000   0.5000000  )
         4           H   tau(   4) = (   0.5925000   0.6191000   0.5000000  )

     number of k points=     1
                       cart. coord. in units 2pi/alat
        k(    1) = (   0.0000000   0.0000000   0.0000000), wk =   2.0000000

     Dense  grid:   192294 G-vectors     FFT dimensions: (  96,  96,  96)

     Smooth grid:    56901 G-vectors     FFT dimensions: (  64,  64,  64)

     Estimated max dynamical RAM per process >      37.62MB

     Estimated total allocated dynamical RAM >     150.47MB

     Solute:
       # atom     E (kcal/mol)  S (angs)
       1  C       0.07000000    3.55000000    OPLS-AA
       2  O       0.17000000    3.00000000    OPLS-AA
       3  H       0.03000000    2.46000000    OPLS-AA
       4  H       0.03000000    2.46000000    OPLS-AA


     3D-RISM info
     ------------
     closure equation        =           KH
     temperature             =     300.0000  kelvin
     coulomb smearing radius =       2.0000  bohr
     number of solvent sites =            2
     solvent sites           =    O/h2o   H/h2o
     number of iterations    =         2000
     convergence threshold   =      1.0E-04
     size of MDIIS           =           10
     step of MDIIS           =       0.8000
     solvent cutoff          =     144.0000  Ry
     Custom grid:    98475 G-vectors     FFT dimensions: (  75,  75,  75)


     Initial potential from superposition of free atoms
     Check: negative starting charge=   -0.003891

     starting charge   11.99993, renormalised to   12.00000

     negative rho (up, down):  3.891E-03 0.000E+00

     3D-RISM Calculation

     convergence threshold    = 1.000E-02
     iter. #     1  RMS(g-h-1)= 2.462E+00  nbox=  0
     iter. #    11  RMS(g-h-1)= 6.439E-02  nbox=  9
     iter. #    21  RMS(g-h-1)= 8.567E-03  nbox= 10

     End of 3D-RISM calculation


     convergence has been achieved in    21 iterations


     solvent charge    0.05020, renormalised to    0.00000

     Total charge of solvent
     H2O          0.050196 e
     Total        0.050196 e

     Chemical potential of solvation
     H2O        Closure      0.996298E+01 kcal/mol
                GaussFluct   0.698894E+01 kcal/mol
     Total      Closure      0.996298E+01 kcal/mol
                GaussFluct   0.698894E+01 kcal/mol

     Starting wfc are   10 randomized atomic wfcs

     total cpu time spent up to now is        3.3 secs

     per-process dynamical memory:    82.9 Mb

     Self-consistent Calculation

     iteration #  1     ecut=    25.00 Ry     beta=0.40
     Davidson diagonalization with overlap
     ethr =  1.00E-02,  avg # of iterations =  2.0

     negative rho (up, down):  1.991E-03 0.000E+00

     3D-RISM Calculation

     convergence threshold    = 1.000E-02
     iter. #     1  RMS(g-h-1)= 5.430E-01  nbox=  0
     iter. #    11  RMS(g-h-1)= 2.864E-02  nbox=  9
     iter. #    20  RMS(g-h-1)= 9.930E-03  nbox= 10

     End of 3D-RISM calculation


     convergence has been achieved in    20 iterations


     solvent charge   -0.11023, renormalised to    0.00000

     Total charge of solvent
     H2O         -0.110234 e
     Total       -0.110234 e

     Chemical potential of solvation
     H2O        Closure      0.801871E+01 kcal/mol
                GaussFluct   0.505763E+01 kcal/mol
     Total      Closure      0.801871E+01 kcal/mol
                GaussFluct   0.505763E+01 kcal/mol


     total cpu time spent up to now is        4.7 secs

     total energy              =     -45.58966311 Ry
     Harris-Foulkes estimate   =     -45.77222371 Ry
     estimated scf accuracy    <       0.46537741 Ry

     iteration #  2     ecut=    25.00 Ry     beta=0.40
     Davidson diagonalization with overlap
     ethr =  3.88E-03,  avg # of iterations =  2.0

     negative rho (up, down):  2.701E-03 0.000E+00

     3D-RISM Calculation

     convergence threshold    = 1.000E-02
     iter. #     1  RMS(g-h-1)= 2.057E-01  nbox=  0
     iter. #    11  RMS(g-h-1)= 1.163E-02  nbox=  9
     iter. #    12  RMS(g-h-1)= 9.883E-03  nbox= 10

     End of 3D-RISM calculation


     convergence has been achieved in    12 iterations


     solvent charge   -0.11521, renormalised to    0.00000

     Total charge of solvent
     H2O         -0.115210 e
     Total       -0.115210 e

     Chemical potential of solvation
     H2O        Closure      0.677385E+01 kcal/mol
                GaussFluct   0.378832E+01 kcal/mol
     Total      Closure      0.677385E+01 kcal/mol
                GaussFluct   0.378832E+01 kcal/mol


     total cpu time spent up to now is        5.7 secs

     total energy              =     -45.63889491 Ry
     Harris-Foulkes estimate   =     -45.66039524 Ry
     estimated scf accuracy    <       0.06372499 Ry

     iteration #  3     ecut=    25.00 Ry     beta=0.40
     Davidson diagonalization with overlap
     ethr =  5.31E-04,  avg # of iterations =  2.0

     negative rho (up, down):  5.964E-03 0.000E+00

     3D-RISM Calculation

     convergence threshold    = 3.687E-03
     iter. #     1  RMS(g-h-1)= 1.769E-01  nbox=  0
     iter. #    11  RMS(g-h-1)= 1.102E-02  nbox=  9
     iter. #    16  RMS(g-h-1)= 3.313E-03  nbox= 10

     End of 3D-RISM calculation


     convergence has been achieved in    16 iterations


     solvent charge   -0.01791, renormalised to    0.00000

     Total charge of solvent
     H2O         -0.017908 e
     Total       -0.017908 e

     Chemical potential of solvation
     H2O        Closure      0.528669E+01 kcal/mol
                GaussFluct   0.235940E+01 kcal/mol
     Total      Closure      0.528669E+01 kcal/mol
                GaussFluct   0.235940E+01 kcal/mol


     total cpu time spent up to now is        7.0 secs

     total energy              =     -45.63622033 Ry
     Harris-Foulkes estimate   =     -45.64820464 Ry
     estimated scf accuracy    <       0.01496202 Ry

     iteration #  4     ecut=    25.00 Ry     beta=0.40
     Davidson diagonalization with overlap
     ethr =  1.25E-04,  avg # of iterations =  3.0

     negative rho (up, down):  5.151E-03 0.000E+00

     3D-RISM Calculation

     convergence threshold    = 1.148E-03
     iter. #     1  RMS(g-h-1)= 2.757E-02  nbox=  0
     iter. #    11  RMS(g-h-1)= 1.023E-03  nbox=  9

     End of 3D-RISM calculation


     convergence has been achieved in    11 iterations


     solvent charge    0.00193, renormalised to    0.00000

     Total charge of solvent
     H2O          0.001932 e
     Total        0.001932 e

     Chemical potential of solvation
     H2O        Closure      0.499036E+01 kcal/mol
                GaussFluct   0.206770E+01 kcal/mol
     Total      Closure      0.499036E+01 kcal/mol
                GaussFluct   0.206770E+01 kcal/mol


     total cpu time spent up to now is        8.0 secs

     total energy              =     -45.63960800 Ry
     Harris-Foulkes estimate   =     -45.64011681 Ry
     estimated scf accuracy    <       0.00623862 Ry

     iteration #  5     ecut=    25.00 Ry     beta=0.40
     Davidson diagonalization with overlap
     ethr =  5.20E-05,  avg # of iterations =  1.0

     negative rho (up, down):  5.939E-03 0.000E+00

     3D-RISM Calculation

     convergence threshold    = 4.901E-04
     iter. #     1  RMS(g-h-1)= 7.175E-02  nbox=  0
     iter. #    11  RMS(g-h-1)= 2.177E-03  nbox=  9
     iter. #    21  RMS(g-h-1)= 4.777E-04  nbox= 10

     End of 3D-RISM calculation


     convergence has been achieved in    21 iterations


     solvent charge    0.00156, renormalised to    0.00000

     Total charge of solvent
     H2O          0.001560 e
     Total        0.001560 e

     Chemical potential of solvation
     H2O        Closure      0.337217E+01 kcal/mol
                GaussFluct   0.424726E+00 kcal/mol
     Total      Closure      0.337217E+01 kcal/mol
                GaussFluct   0.424726E+00 kcal/mol


     total cpu time spent up to now is        9.5 secs

     total energy              =     -45.63803586 Ry
     Harris-Foulkes estimate   =     -45.64489162 Ry
     estimated scf accuracy    <       0.00329369 Ry

     iteration #  6     ecut=    25.00 Ry     beta=0.40
     Davidson diagonalization with overlap
     ethr =  2.74E-05,  avg # of iterations =  3.0

     negative rho (up, down):  5.630E-03 0.000E+00

     3D-RISM Calculation

     convergence threshold    = 1.000E-04
     iter. #     1  RMS(g-h-1)= 1.802E-02  nbox=  0
     iter. #    11  RMS(g-h-1)= 5.741E-04  nbox=  9
     iter. #    21  RMS(g-h-1)= 3.095E-04  nbox= 10
     iter. #    31  RMS(g-h-1)= 2.518E-04  nbox=  2
     iter. #    41  RMS(g-h-1)= 2.058E-04  nbox= 10
     iter. #    51  RMS(g-h-1)= 1.798E-04  nbox=  6
     iter. #    61  RMS(g-h-1)= 1.566E-04  nbox= 10
     iter. #    71  RMS(g-h-1)= 1.388E-04  nbox= 10
     iter. #    81  RMS(g-h-1)= 1.259E-04  nbox=  4
     iter. #    91  RMS(g-h-1)= 1.151E-04  nbox= 10
     iter. #   101  RMS(g-h-1)= 1.056E-04  nbox=  8
     iter. #   107  RMS(g-h-1)= 9.977E-05  nbox= 10

     End of 3D-RISM calculation


     convergence has been achieved in   107 iterations


     solvent charge    0.00005, renormalised to    0.00000

     Total charge of solvent
     H2O          0.000047 e
     Total        0.000047 e

     Chemical potential of solvation
     H2O        Closure      0.366829E+01 kcal/mol
                GaussFluct   0.725250E+00 kcal/mol
     Total      Closure      0.366829E+01 kcal/mol
                GaussFluct   0.725250E+00 kcal/mol


     total cpu time spent up to now is       14.1 secs

     total energy              =     -45.63904121 Ry
     Harris-Foulkes estimate   =     -45.63795280 Ry
     estimated scf accuracy    <       0.00044677 Ry

     iteration #  7     ecut=    25.00 Ry     beta=0.40
     Davidson diagonalization with overlap
     ethr =  3.72E-06,  avg # of iterations =  3.0

     negative rho (up, down):  5.729E-03 0.000E+00

     3D-RISM Calculation

     convergence threshold    = 1.000E-04
     iter. #     1  RMS(g-h-1)= 8.863E-03  nbox=  0
     iter. #    11  RMS(g-h-1)= 1.710E-04  nbox=  9
     iter. #    21  RMS(g-h-1)= 1.040E-04  nbox= 10
     iter. #    23  RMS(g-h-1)= 9.975E-05  nbox= 10

     End of 3D-RISM calculation


     convergence has been achieved in    23 iterations


     solvent charge    0.00004, renormalised to    0.00000

     Total charge of solvent
     H2O          0.000036 e
     Total        0.000036 e

     Chemical potential of solvation
     H2O        Closure      0.350464E+01 kcal/mol
                GaussFluct   0.558304E+00 kcal/mol
     Total      Closure      0.350464E+01 kcal/mol
                GaussFluct   0.558304E+00 kcal/mol


     total cpu time spent up to now is       15.5 secs

     total energy              =     -45.63903256 Ry
     Harris-Foulkes estimate   =     -45.63963733 Ry
     estimated scf accuracy    <       0.00001590 Ry

     iteration #  8     ecut=    25.00 Ry     beta=0.40
     Davidson diagonalization with overlap
     ethr =  1.32E-07,  avg # of iterations =  3.0

     negative rho (up, down):  5.782E-03 0.000E+00

     3D-RISM Calculation

     convergence threshold    = 1.000E-04
     iter. #     1  RMS(g-h-1)= 4.699E-03  nbox=  0
     iter. #    11  RMS(g-h-1)= 2.406E-04  nbox=  9
     iter. #    21  RMS(g-h-1)= 1.001E-04  nbox= 10
     iter. #    22  RMS(g-h-1)= 9.918E-05  nbox= 10

     End of 3D-RISM calculation


     convergence has been achieved in    22 iterations


     solvent charge   -0.00002, renormalised to    0.00000

     Total charge of solvent
     H2O         -0.000022 e
     Total       -0.000022 e

     Chemical potential of solvation
     H2O        Closure      0.341977E+01 kcal/mol
                GaussFluct   0.472052E+00 kcal/mol
     Total      Closure      0.341977E+01 kcal/mol
                GaussFluct   0.472052E+00 kcal/mol


     total cpu time spent up to now is       17.0 secs

     total energy              =     -45.63898391 Ry
     Harris-Foulkes estimate   =     -45.63930986 Ry
     estimated scf accuracy    <       0.00002925 Ry

     iteration #  9     ecut=    25.00 Ry     beta=0.40
     Davidson diagonalization with overlap
     ethr =  1.32E-07,  avg # of iterations =  3.0

     negative rho (up, down):  5.893E-03 0.000E+00

     3D-RISM Calculation

     convergence threshold    = 1.000E-04
     iter. #     1  RMS(g-h-1)= 2.161E-03  nbox=  0
     iter. #    11  RMS(g-h-1)= 1.372E-04  nbox=  9
     iter. #    19  RMS(g-h-1)= 9.983E-05  nbox= 10

     End of 3D-RISM calculation


     convergence has been achieved in    19 iterations


     solvent charge    0.00016, renormalised to    0.00000

     Total charge of solvent
     H2O          0.000163 e
     Total        0.000163 e

     Chemical potential of solvation
     H2O        Closure      0.341260E+01 kcal/mol
                GaussFluct   0.464552E+00 kcal/mol
     Total      Closure      0.341260E+01 kcal/mol
                GaussFluct   0.464552E+00 kcal/mol


     total cpu time spent up to now is       18.3 secs

     End of self-consistent calculation

          k = 0.0000 0.0000 0.0000 (  7122 PWs)   bands (ev):

   -27.4245 -15.8809 -12.5939 -11.6084 -10.5268  -6.7177

     highest occupied level (ev):    -6.7177

!    total energy              =     -45.63888839 Ry
     Harris-Foulkes estimate   =     -45.63901027 Ry
     estimated scf accuracy    <       0.00000076 Ry

     The total energy is the sum of the following terms:

     one-electron contribution =    -100.76427721 Ry
     hartree contribution      =      52.13727371 Ry
     xc contribution           =     -11.75722301 Ry
     ewald contribution        =      14.73445418 Ry
     solvation energy (RISM)   =       0.01088394 Ry

     convergence has been achieved in   9 iterations

     Writing output data file HCHO.aq.save

     init_run     :      2.55s CPU      2.61s WALL (       1 calls)
     electrons    :     14.82s CPU     15.11s WALL (       1 calls)

     Called by init_run:
     wfcinit      :      0.02s CPU      0.02s WALL (       1 calls)
     potinit      :      1.94s CPU      1.99s WALL (       1 calls)

     Called by electrons:
     c_bands      :      0.32s CPU      0.32s WALL (       9 calls)
     sum_band     :      1.51s CPU      1.51s WALL (       9 calls)
     v_of_rho     :      1.96s CPU      1.96s WALL (      10 calls)
     newd         :      1.06s CPU      1.06s WALL (      10 calls)
     mix_rho      :      0.22s CPU      0.22s WALL (       9 calls)

     Called by c_bands:
     init_us_2    :      0.02s CPU      0.01s WALL (      19 calls)
     regterg      :      0.30s CPU      0.30s WALL (       9 calls)

     Called by sum_band:
     sum_band:bec :      0.00s CPU      0.00s WALL (       9 calls)
     addusdens    :      1.11s CPU      1.11s WALL (       9 calls)

     Called by *egterg:
     h_psi        :      0.25s CPU      0.25s WALL (      32 calls)
     s_psi        :      0.03s CPU      0.03s WALL (      32 calls)
     g_psi        :      0.00s CPU      0.00s WALL (      22 calls)
     rdiaghg      :      0.00s CPU      0.00s WALL (      31 calls)

     Called by h_psi:
     h_psi:pot    :      0.25s CPU      0.25s WALL (      32 calls)
     h_psi:calbec :      0.01s CPU      0.01s WALL (      32 calls)
     vloc_psi     :      0.23s CPU      0.23s WALL (      32 calls)
     add_vuspsi   :      0.01s CPU      0.01s WALL (      32 calls)

     General routines
     calbec       :      0.03s CPU      0.03s WALL (      41 calls)
     fft          :      1.93s CPU      1.94s WALL (     185 calls)
     ffts         :      0.03s CPU      0.03s WALL (      19 calls)
     fftw         :      0.20s CPU      0.19s WALL (     193 calls)
     fftc         :      4.52s CPU      4.54s WALL (    1118 calls)
     interpolate  :      0.24s CPU      0.24s WALL (      19 calls)
     davcio       :      0.00s CPU      0.00s WALL (       1 calls)

     Parallel routines
     fft_scatter  :      2.85s CPU      2.82s WALL (    1515 calls)

     RISM routines
     1DRISM_pre   :      0.00s CPU      0.00s WALL (       1 calls)
     1DRISM_run   :      0.46s CPU      0.46s WALL (       1 calls)
     3DRISM_pre   :      0.64s CPU      0.66s WALL (       1 calls)
     3DRISM_run   :     10.53s CPU     10.84s WALL (      10 calls)
     3DRISM_vsol  :      0.11s CPU      0.11s WALL (      10 calls)
     3DRISM_esol  :      0.01s CPU      0.01s WALL (      10 calls)

     PWSCF        :    18.14s CPU        18.53s WALL


   This run was terminated on:   1:35:58   1Mar2017            

=------------------------------------------------------------------------------=
   JOB DONE.
=------------------------------------------------------------------------------=
