
     Program PWSCF v.6.1 starts on 15Apr2021 at 18:49:46 

     This program is part of the open-source Quantum ESPRESSO suite
     for quantum simulation of materials; please cite
         "P. Giannozzi et al., J. Phys.:Condens. Matter 21 395502 (2009);
          URL http://www.quantum-espresso.org", 
     in publications or presentations arising from this work. More details at
     http://www.quantum-espresso.org/quote

     Parallel version (MPI), running on     4 processors
     R & G space division:  proc/nbgrp/npool/nimage =       4
     Waiting for input...
     Reading input from standard input

     Current dimensions of program PWSCF are:
     Max number of different atomic species (ntypx) = 10
     Max number of k-points (npk) =  40000
     Max angular momentum in pseudopotentials (lmaxx) =  3

     gamma-point specific algorithms are used

     Subspace diagonalization in iterative solution of the eigenvalue problem:
     a serial algorithm will be used


     Molecule # 1 for H2O read from file:
     /Users/otani/Program/q-e/pseudo/H2O.spc.MOL
     Density:
         0.33427968E+02 cell^-1
         0.49535137E-02 bohr^-3
         0.55508435E+02 mol/L
         0.10000000E+01 g/cm^3
     Number of atoms:   3
     Atoms:
       #  atom      X (angs)      Y (angs)      Z (angs)      Q (e)         E (kcal/mol)  S (angs)
       1  O/h2o     0.00000000    0.00000000    0.00000000   -0.82000000    0.15540000    3.16600000
       2  H/h2o     0.81649000    0.57736000    0.00000000    0.41000000    0.04600000    1.00000000
       3  H/h2o    -0.81649000    0.57736000    0.00000000    0.41000000    0.04600000    1.00000000


     1D-RISM info
     ------------
     closure equation        =           KH
     temperature             =     300.0000  kelvin
     coulomb smearing radius =       2.0000  bohr
     number of solvent sites =            3
     number of grids         =         5008
     maximum of R-space      =     999.8003  bohr
     maximum of G-space      =      15.7315  bohr^-1
     number of iterations    =        50000
     convergence threshold   =      1.0E-08
     Gaussian width of bonds =       0.0000  bohr
     size of MDIIS           =           20
     step of MDIIS           =       0.5000
     number of processes     =            4


     1D-RISM Calculation

     iter. #     1  RMS(g-h-1)= 6.551E-05  nbox=  0  T= 2400.00K
     iter. #   101  RMS(g-h-1)= 1.490E-06  nbox=  4  T=  474.07K
     iter. #   194  RMS(g-h-1)= 5.522E-09  nbox=  1  T=  300.00K

     End of 1D-RISM calculation


     convergence has been achieved in   194 iterations


     Chemical potential of solvation

     H2O        H2O        Closure     -0.260046E+01 kcal/mol
                           GaussFluct  -0.612396E+01 kcal/mol

                Total      Closure     -0.260046E+01 kcal/mol
                           GaussFluct  -0.612396E+01 kcal/mol


     Parallelization info
     --------------------
     sticks:   dense  smooth     PW     G-vecs:    dense   smooth      PW
     Min        1595     710    178                96144    28450    3560
     Max        1598     714    180                96150    28451    3562
     Sum        6385    2845    717               384587   113801   14243



     bravais-lattice index     =            0
     lattice parameter (alat)  =      18.8973  a.u.
     unit-cell volume          =    6748.3346 (a.u.)^3
     number of atoms/cell      =            4
     number of atomic types    =            3
     number of electrons       =        12.00
     number of Kohn-Sham states=            6
     kinetic-energy cutoff     =      25.0000  Ry
     charge density cutoff     =     225.0000  Ry
     convergence threshold     =      1.0E-06
     mixing beta               =       0.4000
     number of iterations used =            8  plain     mixing
     Exchange-correlation      =  SLA  PW   PBE  PBE ( 1  4  3  4 0 0)

     celldm(1)=  18.897261  celldm(2)=   0.000000  celldm(3)=   0.000000
     celldm(4)=   0.000000  celldm(5)=   0.000000  celldm(6)=   0.000000

     crystal axes: (cart. coord. in units of alat)
               a(1) = (   1.000000   0.000000   0.000000 )  
               a(2) = (   0.000000   1.000000   0.000000 )  
               a(3) = (   0.000000   0.000000   1.000000 )  

     reciprocal axes: (cart. coord. in units 2 pi/alat)
               b(1) = (  1.000000  0.000000  0.000000 )  
               b(2) = (  0.000000  1.000000  0.000000 )  
               b(3) = (  0.000000  0.000000  1.000000 )  


     PseudoPot. # 1 for C  read from file:
     /Users/otani/Program/q-e/pseudo/C.pbe-van_ak.UPF
     MD5 check sum: ecc3b1e1c1ebe006fc976faab44e17a8
     Pseudo is Ultrasoft, Zval =  4.0
     Generated by new atomic code, or converted to UPF format
     Using radial grid of  721 points,  4 beta functions with: 
                l(1) =   0
                l(2) =   0
                l(3) =   1
                l(4) =   1
     Q(r) pseudized with  8 coefficients,  rinner =    0.800   0.800   0.800


     PseudoPot. # 2 for O  read from file:
     /Users/otani/Program/q-e/pseudo/O.pbe-van_ak.UPF
     MD5 check sum: 572909515f9aa9498032b6eb5528d5f9
     Pseudo is Ultrasoft, Zval =  6.0
     Generated by new atomic code, or converted to UPF format
     Using radial grid of  737 points,  4 beta functions with: 
                l(1) =   0
                l(2) =   0
                l(3) =   1
                l(4) =   1
     Q(r) pseudized with  8 coefficients,  rinner =    0.800   0.800   0.800


     PseudoPot. # 3 for H  read from file:
     /Users/otani/Program/q-e/pseudo/H.pbe-van_ak.UPF
     MD5 check sum: a537b41238c433fb4068aaff04c6fb4a
     Pseudo is Ultrasoft, Zval =  1.0
     Generated by new atomic code, or converted to UPF format
     Using radial grid of  615 points,  1 beta functions with: 
                l(1) =   0
     Q(r) pseudized with  8 coefficients,  rinner =    0.800

     atomic species   valence    mass     pseudopotential
        C              4.00    12.01070     C ( 1.00)
        O              6.00    15.99940     O ( 1.00)
        H              1.00     1.00794     H ( 1.00)

      4 Sym. Ops. (no inversion) found



   Cartesian axes

     site n.     atom                  positions (alat units)
         1           C   tau(   1) = (   0.5000000   0.5609000   0.5000000  )
         2           O   tau(   2) = (   0.5000000   0.4425000   0.5000000  )
         3           H   tau(   3) = (   0.4075000   0.6191000   0.5000000  )
         4           H   tau(   4) = (   0.5925000   0.6191000   0.5000000  )

     number of k points=     1
                       cart. coord. in units 2pi/alat
        k(    1) = (   0.0000000   0.0000000   0.0000000), wk =   2.0000000

     Dense  grid:   192294 G-vectors     FFT dimensions: (  96,  96,  96)

     Smooth grid:    56901 G-vectors     FFT dimensions: (  64,  64,  64)

     Estimated max dynamical RAM per process >      37.62MB

     Estimated total allocated dynamical RAM >     150.47MB

     Solute:
       # atom     E (kcal/mol)  S (angs)
       1  C       0.07000000    3.55000000    OPLS-AA
       2  O       0.17000000    3.00000000    OPLS-AA
       3  H       0.03000000    2.46000000    OPLS-AA
       4  H       0.03000000    2.46000000    OPLS-AA


     3D-RISM info
     ------------
     closure equation        =           KH
     temperature             =     300.0000  kelvin
     coulomb smearing radius =       2.0000  bohr
     number of solvent sites =            2
     solvent sites           =    O/h2o   H/h2o
     number of iterations    =         5000
     convergence threshold   =      1.0E-05
     convergence level       =       0.1000
     size of MDIIS           =           10
     step of MDIIS           =       0.8000
     solvent cutoff          =     144.0000  Ry
     Custom grid:    98475 G-vectors     FFT dimensions: (  75,  75,  75)


     Initial potential from superposition of free atoms
     Check: negative starting charge=   -0.003887

     starting charge   11.99994, renormalised to   12.00000

     negative rho (up, down):  3.887E-03 0.000E+00

     3D-RISM Calculation

     convergence threshold    = 5.012E-03
     iter. #     1  RMS(g-h-1)= 8.114E-01  nbox=  0
     iter. #    11  RMS(g-h-1)= 2.246E-02  nbox= 10
     iter. #    21  RMS(g-h-1)= 9.501E-03  nbox= 10
     iter. #    25  RMS(g-h-1)= 4.318E-03  nbox= 10

     End of 3D-RISM calculation


     convergence has been achieved in    25 iterations


     solvent charge    0.13029, renormalised to    0.00000

     Total number of solvent
     H2O           33.416795

     Total charge of solvent
     H2O            0.130294 e
     Total          0.130294 e

     Chemical potential of solvation
     H2O        Closure      0.981633E+01 kcal/mol
                GaussFluct   0.692059E+01 kcal/mol
     Total      Closure      0.981633E+01 kcal/mol
                GaussFluct   0.692059E+01 kcal/mol

     Starting wfc are   10 randomized atomic wfcs

     total cpu time spent up to now is       11.8 secs

     Self-consistent Calculation

     iteration #  1     ecut=    25.00 Ry     beta=0.40
     Davidson diagonalization with overlap
     ethr =  1.00E-02,  avg # of iterations =  2.0

     negative rho (up, down):  2.003E-03 0.000E+00

     3D-RISM Calculation

     convergence threshold    = 5.012E-03
     iter. #     1  RMS(g-h-1)= 1.480E-01  nbox=  0
     iter. #    11  RMS(g-h-1)= 1.012E-02  nbox= 10
     iter. #    19  RMS(g-h-1)= 4.626E-03  nbox= 10

     End of 3D-RISM calculation


     convergence has been achieved in    19 iterations


     solvent charge   -0.17321, renormalised to    0.00000

     Total number of solvent
     H2O           33.438206

     Total charge of solvent
     H2O           -0.173213 e
     Total         -0.173213 e

     Chemical potential of solvation
     H2O        Closure      0.792337E+01 kcal/mol
                GaussFluct   0.493009E+01 kcal/mol
     Total      Closure      0.792337E+01 kcal/mol
                GaussFluct   0.493009E+01 kcal/mol


     total cpu time spent up to now is       12.9 secs

     total energy              =     -45.66585800 Ry
     Harris-Foulkes estimate   =     -45.83872798 Ry
     estimated scf accuracy    <       0.43608019 Ry

     iteration #  2     ecut=    25.00 Ry     beta=0.40
     Davidson diagonalization with overlap
     ethr =  3.63E-03,  avg # of iterations =  2.0

     negative rho (up, down):  2.755E-03 0.000E+00

     3D-RISM Calculation

     convergence threshold    = 5.012E-03
     iter. #     1  RMS(g-h-1)= 5.904E-02  nbox=  0
     iter. #    11  RMS(g-h-1)= 5.397E-03  nbox= 10
     iter. #    12  RMS(g-h-1)= 4.686E-03  nbox= 10

     End of 3D-RISM calculation


     convergence has been achieved in    12 iterations


     solvent charge   -0.21265, renormalised to    0.00000

     Total number of solvent
     H2O           33.467949

     Total charge of solvent
     H2O           -0.212650 e
     Total         -0.212650 e

     Chemical potential of solvation
     H2O        Closure      0.682629E+01 kcal/mol
                GaussFluct   0.377446E+01 kcal/mol
     Total      Closure      0.682629E+01 kcal/mol
                GaussFluct   0.377446E+01 kcal/mol


     total cpu time spent up to now is       14.0 secs

     total energy              =     -45.70459831 Ry
     Harris-Foulkes estimate   =     -45.72475375 Ry
     estimated scf accuracy    <       0.06102430 Ry

     iteration #  3     ecut=    25.00 Ry     beta=0.40
     Davidson diagonalization with overlap
     ethr =  5.09E-04,  avg # of iterations =  2.0

     negative rho (up, down):  5.904E-03 0.000E+00

     3D-RISM Calculation

     convergence threshold    = 8.797E-04
     iter. #     1  RMS(g-h-1)= 4.996E-02  nbox=  0
     iter. #    11  RMS(g-h-1)= 4.936E-03  nbox= 10
     iter. #    21  RMS(g-h-1)= 1.072E-03  nbox= 10
     iter. #    23  RMS(g-h-1)= 7.942E-04  nbox= 10

     End of 3D-RISM calculation


     convergence has been achieved in    23 iterations


     solvent charge   -0.02677, renormalised to    0.00000

     Total number of solvent
     H2O           33.430580

     Total charge of solvent
     H2O           -0.026766 e
     Total         -0.026766 e

     Chemical potential of solvation
     H2O        Closure      0.559784E+01 kcal/mol
                GaussFluct   0.267014E+01 kcal/mol
     Total      Closure      0.559784E+01 kcal/mol
                GaussFluct   0.267014E+01 kcal/mol


     total cpu time spent up to now is       16.0 secs

     total energy              =     -45.70296731 Ry
     Harris-Foulkes estimate   =     -45.70855844 Ry
     estimated scf accuracy    <       0.01414428 Ry

     iteration #  4     ecut=    25.00 Ry     beta=0.40
     Davidson diagonalization with overlap
     ethr =  1.18E-04,  avg # of iterations =  3.0

     negative rho (up, down):  5.208E-03 0.000E+00

     3D-RISM Calculation

     convergence threshold    = 2.827E-04
     iter. #     1  RMS(g-h-1)= 6.888E-03  nbox=  0
     iter. #    11  RMS(g-h-1)= 4.164E-04  nbox= 10
     iter. #    13  RMS(g-h-1)= 2.689E-04  nbox= 10

     End of 3D-RISM calculation


     convergence has been achieved in    13 iterations


     solvent charge    0.00084, renormalised to    0.00000

     Total number of solvent
     H2O           33.426824

     Total charge of solvent
     H2O            0.000843 e
     Total          0.000843 e

     Chemical potential of solvation
     H2O        Closure      0.534048E+01 kcal/mol
                GaussFluct   0.242383E+01 kcal/mol
     Total      Closure      0.534048E+01 kcal/mol
                GaussFluct   0.242383E+01 kcal/mol


     total cpu time spent up to now is       17.6 secs

     total energy              =     -45.70519249 Ry
     Harris-Foulkes estimate   =     -45.70593697 Ry
     estimated scf accuracy    <       0.00621992 Ry

     iteration #  5     ecut=    25.00 Ry     beta=0.40
     Davidson diagonalization with overlap
     ethr =  5.18E-05,  avg # of iterations =  1.0

     negative rho (up, down):  5.964E-03 0.000E+00

     3D-RISM Calculation

     convergence threshold    = 1.255E-04
     iter. #     1  RMS(g-h-1)= 2.314E-02  nbox=  0
     iter. #    11  RMS(g-h-1)= 8.200E-04  nbox= 10
     iter. #    21  RMS(g-h-1)= 3.695E-04  nbox= 10
     iter. #    31  RMS(g-h-1)= 1.628E-04  nbox= 10
     iter. #    38  RMS(g-h-1)= 1.241E-04  nbox= 10

     End of 3D-RISM calculation


     convergence has been achieved in    38 iterations


     solvent charge   -0.00141, renormalised to    0.00000

     Total number of solvent
     H2O           33.427915

     Total charge of solvent
     H2O           -0.001408 e
     Total         -0.001408 e

     Chemical potential of solvation
     H2O        Closure      0.373617E+01 kcal/mol
                GaussFluct   0.793560E+00 kcal/mol
     Total      Closure      0.373617E+01 kcal/mol
                GaussFluct   0.793560E+00 kcal/mol


     total cpu time spent up to now is       19.6 secs

     total energy              =     -45.70416595 Ry
     Harris-Foulkes estimate   =     -45.70529352 Ry
     estimated scf accuracy    <       0.00345562 Ry

     iteration #  6     ecut=    25.00 Ry     beta=0.40
     Davidson diagonalization with overlap
     ethr =  2.88E-05,  avg # of iterations =  3.0

     negative rho (up, down):  5.671E-03 0.000E+00

     3D-RISM Calculation

     convergence threshold    = 1.000E-05
     iter. #     1  RMS(g-h-1)= 6.575E-03  nbox=  0
     iter. #    11  RMS(g-h-1)= 2.848E-04  nbox= 10
     iter. #    21  RMS(g-h-1)= 1.354E-04  nbox= 10
     iter. #    31  RMS(g-h-1)= 8.956E-05  nbox= 10
     iter. #    41  RMS(g-h-1)= 8.192E-05  nbox= 10
     iter. #    51  RMS(g-h-1)= 6.609E-05  nbox= 10
     iter. #    61  RMS(g-h-1)= 5.971E-05  nbox=  4
     iter. #    71  RMS(g-h-1)= 5.336E-05  nbox= 10
     iter. #    81  RMS(g-h-1)= 5.010E-05  nbox=  8
     iter. #    91  RMS(g-h-1)= 4.746E-05  nbox=  2
     iter. #   101  RMS(g-h-1)= 4.489E-05  nbox= 10
     iter. #   111  RMS(g-h-1)= 4.142E-05  nbox=  6
     iter. #   121  RMS(g-h-1)= 3.730E-05  nbox= 10
     iter. #   131  RMS(g-h-1)= 3.434E-05  nbox= 10
     iter. #   141  RMS(g-h-1)= 3.145E-05  nbox=  4
     iter. #   151  RMS(g-h-1)= 2.959E-05  nbox= 10
     iter. #   161  RMS(g-h-1)= 2.850E-05  nbox=  8
     iter. #   171  RMS(g-h-1)= 2.754E-05  nbox=  2
     iter. #   181  RMS(g-h-1)= 2.600E-05  nbox= 10
     iter. #   191  RMS(g-h-1)= 2.485E-05  nbox=  6
     iter. #   201  RMS(g-h-1)= 2.366E-05  nbox= 10
     iter. #   211  RMS(g-h-1)= 2.285E-05  nbox= 10
     iter. #   221  RMS(g-h-1)= 2.193E-05  nbox=  4
     iter. #   231  RMS(g-h-1)= 2.084E-05  nbox= 10
     iter. #   241  RMS(g-h-1)= 2.004E-05  nbox=  8
     iter. #   251  RMS(g-h-1)= 1.918E-05  nbox=  2
     iter. #   261  RMS(g-h-1)= 1.828E-05  nbox= 10
     iter. #   271  RMS(g-h-1)= 1.764E-05  nbox=  6
     iter. #   281  RMS(g-h-1)= 1.706E-05  nbox= 10
     iter. #   291  RMS(g-h-1)= 1.651E-05  nbox= 10
     iter. #   301  RMS(g-h-1)= 1.607E-05  nbox=  4
     iter. #   311  RMS(g-h-1)= 1.556E-05  nbox= 10
     iter. #   321  RMS(g-h-1)= 1.513E-05  nbox=  8
     iter. #   331  RMS(g-h-1)= 1.468E-05  nbox=  2
     iter. #   341  RMS(g-h-1)= 1.424E-05  nbox= 10
     iter. #   351  RMS(g-h-1)= 1.382E-05  nbox=  6
     iter. #   361  RMS(g-h-1)= 1.337E-05  nbox= 10
     iter. #   371  RMS(g-h-1)= 1.303E-05  nbox= 10
     iter. #   381  RMS(g-h-1)= 1.275E-05  nbox=  4
     iter. #   391  RMS(g-h-1)= 1.257E-05  nbox= 10
     iter. #   401  RMS(g-h-1)= 1.241E-05  nbox=  8
     iter. #   411  RMS(g-h-1)= 1.230E-05  nbox=  2
     iter. #   421  RMS(g-h-1)= 1.217E-05  nbox= 10
     iter. #   431  RMS(g-h-1)= 1.198E-05  nbox=  6
     iter. #   441  RMS(g-h-1)= 1.184E-05  nbox= 10
     iter. #   451  RMS(g-h-1)= 1.164E-05  nbox= 10
     iter. #   461  RMS(g-h-1)= 1.146E-05  nbox=  4
     iter. #   471  RMS(g-h-1)= 1.126E-05  nbox= 10
     iter. #   481  RMS(g-h-1)= 1.109E-05  nbox=  8
     iter. #   491  RMS(g-h-1)= 1.095E-05  nbox=  2
     iter. #   501  RMS(g-h-1)= 1.075E-05  nbox= 10
     iter. #   511  RMS(g-h-1)= 1.060E-05  nbox=  6
     iter. #   521  RMS(g-h-1)= 1.043E-05  nbox= 10
     iter. #   531  RMS(g-h-1)= 1.026E-05  nbox= 10
     iter. #   541  RMS(g-h-1)= 1.006E-05  nbox=  4
     iter. #   545  RMS(g-h-1)= 9.985E-06  nbox=  8

     End of 3D-RISM calculation


     convergence has been achieved in   545 iterations


     solvent charge   -0.00001, renormalised to    0.00000

     Total number of solvent
     H2O           33.427969

     Total charge of solvent
     H2O           -0.000008 e
     Total         -0.000008 e

     Chemical potential of solvation
     H2O        Closure      0.409076E+01 kcal/mol
                GaussFluct   0.115629E+01 kcal/mol
     Total      Closure      0.409076E+01 kcal/mol
                GaussFluct   0.115629E+01 kcal/mol


     total cpu time spent up to now is       41.6 secs

     total energy              =     -45.70485175 Ry
     Harris-Foulkes estimate   =     -45.70513239 Ry
     estimated scf accuracy    <       0.00053053 Ry

     iteration #  7     ecut=    25.00 Ry     beta=0.40
     Davidson diagonalization with overlap
     ethr =  4.42E-06,  avg # of iterations =  3.0

     negative rho (up, down):  5.777E-03 0.000E+00

     3D-RISM Calculation

     convergence threshold    = 1.000E-05
     iter. #     1  RMS(g-h-1)= 3.931E-03  nbox=  0
     iter. #    11  RMS(g-h-1)= 1.467E-04  nbox= 10
     iter. #    21  RMS(g-h-1)= 2.880E-05  nbox= 10
     iter. #    31  RMS(g-h-1)= 1.451E-05  nbox= 10
     iter. #    41  RMS(g-h-1)= 1.327E-05  nbox= 10
     iter. #    51  RMS(g-h-1)= 1.222E-05  nbox=  8
     iter. #    61  RMS(g-h-1)= 1.160E-05  nbox=  2
     iter. #    71  RMS(g-h-1)= 1.115E-05  nbox= 10
     iter. #    81  RMS(g-h-1)= 1.092E-05  nbox=  6
     iter. #    91  RMS(g-h-1)= 1.067E-05  nbox= 10
     iter. #   101  RMS(g-h-1)= 1.055E-05  nbox= 10
     iter. #   111  RMS(g-h-1)= 1.044E-05  nbox=  4
     iter. #   121  RMS(g-h-1)= 1.035E-05  nbox= 10
     iter. #   131  RMS(g-h-1)= 1.022E-05  nbox=  8
     iter. #   141  RMS(g-h-1)= 1.009E-05  nbox=  2
     iter. #   146  RMS(g-h-1)= 9.999E-06  nbox=  7

     End of 3D-RISM calculation


     convergence has been achieved in   146 iterations


     solvent charge   -0.00002, renormalised to    0.00000

     Total number of solvent
     H2O           33.427970

     Total charge of solvent
     H2O           -0.000023 e
     Total         -0.000023 e

     Chemical potential of solvation
     H2O        Closure      0.379626E+01 kcal/mol
                GaussFluct   0.856476E+00 kcal/mol
     Total      Closure      0.379626E+01 kcal/mol
                GaussFluct   0.856476E+00 kcal/mol


     total cpu time spent up to now is       48.1 secs

     total energy              =     -45.70497616 Ry
     Harris-Foulkes estimate   =     -45.70497929 Ry
     estimated scf accuracy    <       0.00005815 Ry

     iteration #  8     ecut=    25.00 Ry     beta=0.40
     Davidson diagonalization with overlap
     ethr =  4.85E-07,  avg # of iterations =  2.0

     negative rho (up, down):  5.834E-03 0.000E+00

     3D-RISM Calculation

     convergence threshold    = 1.000E-05
     iter. #     1  RMS(g-h-1)= 1.030E-03  nbox=  0
     iter. #    11  RMS(g-h-1)= 4.350E-05  nbox= 10
     iter. #    21  RMS(g-h-1)= 1.629E-05  nbox= 10
     iter. #    31  RMS(g-h-1)= 1.158E-05  nbox= 10
     iter. #    41  RMS(g-h-1)= 1.069E-05  nbox=  2
     iter. #    51  RMS(g-h-1)= 1.024E-05  nbox= 10
     iter. #    61  RMS(g-h-1)= 1.016E-05  nbox=  6
     iter. #    71  RMS(g-h-1)= 1.003E-05  nbox= 10
     iter. #    77  RMS(g-h-1)= 9.998E-06  nbox=  6

     End of 3D-RISM calculation


     convergence has been achieved in    77 iterations


     solvent charge   -0.00001, renormalised to    0.00000

     Total number of solvent
     H2O           33.427965

     Total charge of solvent
     H2O           -0.000011 e
     Total         -0.000011 e

     Chemical potential of solvation
     H2O        Closure      0.372805E+01 kcal/mol
                GaussFluct   0.787197E+00 kcal/mol
     Total      Closure      0.372805E+01 kcal/mol
                GaussFluct   0.787197E+00 kcal/mol


     total cpu time spent up to now is       51.3 secs

     total energy              =     -45.70497612 Ry
     Harris-Foulkes estimate   =     -45.70498027 Ry
     estimated scf accuracy    <       0.00001175 Ry

     iteration #  9     ecut=    25.00 Ry     beta=0.40
     Davidson diagonalization with overlap
     ethr =  9.79E-08,  avg # of iterations =  3.0

     negative rho (up, down):  5.872E-03 0.000E+00

     3D-RISM Calculation

     convergence threshold    = 1.000E-05
     iter. #     1  RMS(g-h-1)= 3.807E-04  nbox=  0
     iter. #    11  RMS(g-h-1)= 1.766E-05  nbox= 10
     iter. #    21  RMS(g-h-1)= 9.991E-06  nbox= 10

     End of 3D-RISM calculation


     convergence has been achieved in    21 iterations


     solvent charge    0.00000, renormalised to    0.00000

     Total number of solvent
     H2O           33.427967

     Total charge of solvent
     H2O            0.000002 e
     Total          0.000002 e

     Chemical potential of solvation
     H2O        Closure      0.373478E+01 kcal/mol
                GaussFluct   0.793773E+00 kcal/mol
     Total      Closure      0.373478E+01 kcal/mol
                GaussFluct   0.793773E+00 kcal/mol


     total cpu time spent up to now is       53.1 secs

     total energy              =     -45.70497906 Ry
     Harris-Foulkes estimate   =     -45.70497965 Ry
     estimated scf accuracy    <       0.00000150 Ry

     iteration # 10     ecut=    25.00 Ry     beta=0.40
     Davidson diagonalization with overlap
     ethr =  1.25E-08,  avg # of iterations =  3.0

     negative rho (up, down):  5.950E-03 0.000E+00

     3D-RISM Calculation

     convergence threshold    = 1.000E-05
     iter. #     1  RMS(g-h-1)= 1.019E-04  nbox=  0
     iter. #    11  RMS(g-h-1)= 1.030E-05  nbox= 10
     iter. #    18  RMS(g-h-1)= 9.993E-06  nbox= 10

     End of 3D-RISM calculation


     convergence has been achieved in    18 iterations


     solvent charge   -0.00003, renormalised to    0.00000

     Total number of solvent
     H2O           33.427969

     Total charge of solvent
     H2O           -0.000026 e
     Total         -0.000026 e

     Chemical potential of solvation
     H2O        Closure      0.373316E+01 kcal/mol
                GaussFluct   0.792031E+00 kcal/mol
     Total      Closure      0.373316E+01 kcal/mol
                GaussFluct   0.792031E+00 kcal/mol


     total cpu time spent up to now is       54.6 secs

     End of self-consistent calculation

          k = 0.0000 0.0000 0.0000 (  7122 PWs)   bands (ev):

   -27.6561 -16.0063 -12.6516 -11.6857 -10.7746  -6.7165

     highest occupied level (ev):    -6.7165

!    total energy              =     -45.70497927 Ry
     Harris-Foulkes estimate   =     -45.70497930 Ry
     estimated scf accuracy    <       0.00000004 Ry

     The total energy is the sum of the following terms:

     one-electron contribution =    -100.76628690 Ry
     hartree contribution      =      52.14750046 Ry
     xc contribution           =     -11.83255331 Ry
     ewald contribution        =      14.73445418 Ry
     solvation energy (RISM)   =       0.01190629 Ry

     convergence has been achieved in  10 iterations

     Writing output data file HCHO.aq.save

     init_run     :      1.69s CPU      1.71s WALL (       1 calls)
     electrons    :     43.19s CPU     42.82s WALL (       1 calls)

     Called by init_run:
     wfcinit      :      0.01s CPU      0.01s WALL (       1 calls)
     potinit      :      1.44s CPU      1.42s WALL (       1 calls)

     Called by electrons:
     c_bands      :      0.28s CPU      0.33s WALL (      10 calls)
     sum_band     :      1.37s CPU      1.42s WALL (      10 calls)
     v_of_rho     :      1.47s CPU      1.69s WALL (      11 calls)
     newd         :      0.83s CPU      1.13s WALL (      11 calls)
     mix_rho      :      0.23s CPU      0.26s WALL (      10 calls)

     Called by c_bands:
     init_us_2    :      0.01s CPU      0.02s WALL (      21 calls)
     regterg      :      0.27s CPU      0.30s WALL (      10 calls)

     Called by sum_band:
     sum_band:bec :      0.00s CPU      0.00s WALL (      10 calls)
     addusdens    :      0.99s CPU      0.98s WALL (      10 calls)

     Called by *egterg:
     h_psi        :      0.23s CPU      0.25s WALL (      35 calls)
     s_psi        :      0.01s CPU      0.01s WALL (      35 calls)
     g_psi        :      0.00s CPU      0.00s WALL (      24 calls)
     rdiaghg      :      0.01s CPU      0.01s WALL (      34 calls)

     Called by h_psi:
     h_psi:pot    :      0.22s CPU      0.24s WALL (      35 calls)
     h_psi:calbec :      0.02s CPU      0.02s WALL (      35 calls)
     vloc_psi     :      0.19s CPU      0.21s WALL (      35 calls)
     add_vuspsi   :      0.01s CPU      0.01s WALL (      35 calls)

     General routines
     calbec       :      0.02s CPU      0.03s WALL (      45 calls)
     fft          :      1.78s CPU      2.03s WALL (     204 calls)
     ffts         :      0.03s CPU      0.04s WALL (      21 calls)
     fftw         :      0.16s CPU      0.18s WALL (     208 calls)
     fftc         :     12.34s CPU     13.94s WALL (    3781 calls)
     interpolate  :      0.25s CPU      0.30s WALL (      21 calls)
     davcio       :      0.00s CPU      0.00s WALL (       1 calls)

     Parallel routines
     fft_scatter  :      7.09s CPU      7.38s WALL (    4214 calls)

     RISM routines
     1DRISM_pre   :      0.00s CPU      0.00s WALL (       1 calls)
     1DRISM_run   :      4.19s CPU      9.81s WALL (       1 calls)
     3DRISM_pre   :      0.24s CPU      0.24s WALL (       1 calls)
     3DRISM_run   :     39.74s CPU     38.62s WALL (      11 calls)
     3DRISM_vsol  :      0.11s CPU      0.14s WALL (      11 calls)

     PWSCF        :    49.34s CPU        54.81s WALL


   This run was terminated on:  18:50:41  15Apr2021            

=------------------------------------------------------------------------------=
   JOB DONE.
=------------------------------------------------------------------------------=
