
     Program PWSCF v.6.0 starts on  9Feb2017 at 23:18:41 

     This program is part of the open-source Quantum ESPRESSO suite
     for quantum simulation of materials; please cite
         "P. Giannozzi et al., J. Phys.:Condens. Matter 21 395502 (2009);
          URL http://www.quantum-espresso.org", 
     in publications or presentations arising from this work. More details at
     http://www.quantum-espresso.org/quote

     Parallel version (MPI & OpenMP), running on       6 processor cores
     Number of MPI processes:                 6
     Threads/MPI process:                     1
     R & G space division:  proc/nbgrp/npool/nimage =       6
     Waiting for input...
     Reading input from standard input

     Current dimensions of program PWSCF are:
     Max number of different atomic species (ntypx) = 10
     Max number of k-points (npk) =  40000
     Max angular momentum in pseudopotentials (lmaxx) =  3
     Message from routine iosys_1drism:
     default density from MOL file(Ethanol.oplsua.MOL) is used

     Subspace diagonalization in iterative solution of the eigenvalue problem:
     a serial algorithm will be used


     Molecule # 1 for EtOH read from file:
     /home/nisihara/QE/espresso/pseudo/Ethanol.oplsua.MOL
     Density:
         0.29122186E+01 cell^-1
         0.15283678E-02 bohr^-3
         0.17126692E+02 mol/L
         0.78900000E+00 g/cm^3
     Number of atoms:   4
     Atoms: 
       #  atom      X (angs)      Y (angs)      Z (angs)      Q (e)         E (kcal/mol)  S (angs)
       1  CH3/et   -0.15329132   -1.20449407    0.00000000    0.00000000    0.20700000    3.77500000
       2  CH2/et    0.52122770    0.14806752    0.00000000    0.26500000    0.11800000    3.90500000
       3  O/et     -0.49452384    1.13851228    0.00000000   -0.70000000    0.17000000    3.07000000
       4  H/et     -0.09079379    2.00792208    0.00000000    0.43500000    0.04600000    1.00000000


     1D-RISM info
     ------------
     closure equation        =           KH
     temperature             =     300.0000  kelvin
     coulomb smearing radius =       2.0000  bohr
     number of solvent sites =            4
     number of grids         =         1252
     maximum of R-space      =     249.8003  bohr
     maximum of G-space      =      15.7268  bohr^-1
     number of iterations    =        40000
     convergence threshold   =      1.0E-08
     Gaussian width of bonds =       0.4000  bohr
     size of MDIIS           =           20
     step of MDIIS           =       0.5000
     number of processes     =            6


     1D-RISM Calculation

     iter. #     1  RMS(g-h-1)= 9.113E-04  nbox=  0  T= 2400.00K
     iter. #   101  RMS(g-h-1)= 1.011E-06  nbox= 20  T= 1066.67K
     iter. #   201  RMS(g-h-1)= 1.192E-04  nbox=  5  T=  316.05K
     iter. #   301  RMS(g-h-1)= 8.030E-07  nbox= 20  T=  300.00K
     iter. #   401  RMS(g-h-1)= 3.580E-07  nbox= 20  T=  300.00K
     iter. #   501  RMS(g-h-1)= 2.231E-07  nbox= 20  T=  300.00K
     iter. #   601  RMS(g-h-1)= 1.811E-07  nbox= 20  T=  300.00K
     iter. #   701  RMS(g-h-1)= 1.165E-07  nbox= 20  T=  300.00K
     iter. #   801  RMS(g-h-1)= 8.773E-08  nbox= 20  T=  300.00K
     iter. #   901  RMS(g-h-1)= 7.444E-08  nbox= 20  T=  300.00K
     iter. #  1001  RMS(g-h-1)= 6.808E-08  nbox= 20  T=  300.00K
     iter. #  1101  RMS(g-h-1)= 6.218E-08  nbox= 20  T=  300.00K
     iter. #  1201  RMS(g-h-1)= 5.773E-08  nbox= 20  T=  300.00K
     iter. #  1301  RMS(g-h-1)= 5.110E-08  nbox= 20  T=  300.00K
     iter. #  1401  RMS(g-h-1)= 4.329E-08  nbox= 20  T=  300.00K
     iter. #  1501  RMS(g-h-1)= 3.444E-08  nbox= 20  T=  300.00K
     iter. #  1601  RMS(g-h-1)= 2.678E-08  nbox= 20  T=  300.00K
     iter. #  1701  RMS(g-h-1)= 2.166E-08  nbox= 20  T=  300.00K
     iter. #  1801  RMS(g-h-1)= 1.731E-08  nbox= 20  T=  300.00K
     iter. #  1901  RMS(g-h-1)= 1.511E-08  nbox= 20  T=  300.00K
     iter. #  2001  RMS(g-h-1)= 1.330E-08  nbox= 20  T=  300.00K
     iter. #  2101  RMS(g-h-1)= 1.224E-08  nbox= 20  T=  300.00K
     iter. #  2201  RMS(g-h-1)= 1.152E-08  nbox= 20  T=  300.00K
     iter. #  2301  RMS(g-h-1)= 1.112E-08  nbox= 20  T=  300.00K
     iter. #  2401  RMS(g-h-1)= 1.087E-08  nbox= 20  T=  300.00K
     iter. #  2501  RMS(g-h-1)= 1.065E-08  nbox= 20  T=  300.00K
     iter. #  2601  RMS(g-h-1)= 1.040E-08  nbox= 20  T=  300.00K
     iter. #  2701  RMS(g-h-1)= 1.024E-08  nbox= 20  T=  300.00K
     iter. #  2801  RMS(g-h-1)= 1.015E-08  nbox= 20  T=  300.00K
     iter. #  2893  RMS(g-h-1)= 1.000E-08  nbox= 20  T=  300.00K

     End of 1D-RISM calculation


     convergence has been achieved in  2893 iterations


     Chemical potential of solvation

     EtOH       EtOH       Closure     -0.130649E+01 kcal/mol
                           GaussFluct  -0.686005E+01 kcal/mol

                Total      Closure     -0.130649E+01 kcal/mol
                           GaussFluct  -0.686005E+01 kcal/mol


     Parallelization info
     --------------------
     sticks:   dense  smooth     PW     G-vecs:    dense   smooth      PW
     Min         124      56     17                18086     5377     980
     Max         125      58     19                18119     5386     989
     Sum         749     341    109               108669    32285    5903



     bravais-lattice index     =            6
     lattice parameter (alat)  =       6.4818  a.u.
     unit-cell volume          =    1905.4436 (a.u.)^3
     number of atoms/cell      =            5
     number of atomic types    =            1
     number of electrons       =         5.00
     number of Kohn-Sham states=            7
     kinetic-energy cutoff     =      25.0000  Ry
     charge density cutoff     =     225.0000  Ry
     convergence threshold     =      1.0E-06
     mixing beta               =       0.4000
     number of iterations used =            8  plain     mixing
     Exchange-correlation      =  SLA  PW   PBE  PBE ( 1  4  3  4 0 0)

     Effective Screening Medium Method
     =================================
     Boundary Conditions: Vacuum-Slab-Vacuum
     grid points for fit at edges     =        4 


     celldm(1)=   6.481761  celldm(2)=   0.000000  celldm(3)=   6.997085
     celldm(4)=   0.000000  celldm(5)=   0.000000  celldm(6)=   0.000000

     crystal axes: (cart. coord. in units of alat)
               a(1) = (   1.000000   0.000000   0.000000 )  
               a(2) = (   0.000000   1.000000   0.000000 )  
               a(3) = (   0.000000   0.000000   6.997085 )  

     reciprocal axes: (cart. coord. in units 2 pi/alat)
               b(1) = (  1.000000  0.000000  0.000000 )  
               b(2) = (  0.000000  1.000000  0.000000 )  
               b(3) = (  0.000000  0.000000  0.142917 )  


     PseudoPot. # 1 for Li read from file:
     /home/nisihara/QE/espresso/pseudo/Li.pbe-n-van.UPF
     MD5 check sum: 057edeeab9105e5446fd9e29ea3f9c2f
     Pseudo is Ultrasoft + core correction, Zval =  1.0
     Generated by new atomic code, or converted to UPF format
     Using radial grid of  751 points,  2 beta functions with: 
                l(1) =   1
                l(2) =   1
     Q(r) pseudized with  8 coefficients,  rinner =    1.000   1.000   1.000


     atomic species   valence    mass     pseudopotential
        Li             1.00     6.94100     Li( 1.00)

     16 Sym. Ops., with inversion, found



   Cartesian axes

     site n.     atom                  positions (alat units)
         1           Li  tau(   1) = (   0.0000000   0.0000000  -1.0000000  )
         2           Li  tau(   2) = (   0.5000000   0.5000000  -0.5000000  )
         3           Li  tau(   3) = (   0.0000000   0.0000000   0.0000000  )
         4           Li  tau(   4) = (   0.5000000   0.5000000   0.5000000  )
         5           Li  tau(   5) = (   0.0000000   0.0000000   1.0000000  )

     number of k points=     3  gaussian smearing, width (Ry)=  0.0100
                       cart. coord. in units 2pi/alat
        k(    1) = (   0.0000000   0.0000000   0.0000000), wk =   0.5000000
        k(    2) = (   0.0000000  -0.5000000   0.0000000), wk =   1.0000000
        k(    3) = (  -0.5000000  -0.5000000   0.0000000), wk =   0.5000000

     Dense  grid:   108669 G-vectors     FFT dimensions: (  32,  32, 225)

     Smooth grid:    32285 G-vectors     FFT dimensions: (  24,  24, 150)

     Estimated max dynamical RAM per process >      11.02Mb

     Estimated total allocated dynamical RAM >      66.15Mb

     Solute:
       # atom     E (kcal/mol)  S (angs)
       1  Li      0.02500000    2.18359276    UFF
       2  Li      0.02500000    2.18359276    UFF
       3  Li      0.02500000    2.18359276    UFF
       4  Li      0.02500000    2.18359276    UFF
       5  Li      0.02500000    2.18359276    UFF


     Laue-RISM info
     --------------
     closure equation        =           KH
     temperature             =     300.0000  kelvin
     coulomb smearing radius =       2.0000  bohr
     number of solvent sites =            4
     solvent sites           =   CH3/et  CH2/et    O/et    H/et
     number of iterations    =         2000
     convergence threshold   =      1.0E-04
     size of MDIIS           =           10
     step of MDIIS           =       0.8000
     solvent cutoff          =     144.0000  Ry
     Custom grid:    55813 G-vectors     FFT dimensions: (  25,  25, 180)

     Boundary Conditions        : Vacuum-Slab-Solvent
     unit-cell (in bohr)        : [ -22.676714  22.676714]
     expand-cell (in bohr)      : [ -22.676714  74.077264]
     solvent of right (in bohr) : [  -1.007854  74.077264]
     reference of potential     : right-hand side
     #grids to fit at edges of unit-cell =    4
     Laue grid:      489 Gxy-vectors     FFT dimensions: (  25,  25, 384)


     Initial potential from superposition of free atoms

     starting charge    4.97665, renormalised to    5.00000

     negative rho (up, down):  1.842E-05 0.000E+00

     Laue-RISM Calculation

     convergence threshold    = 1.000E-02
     iter. #     1  RMS(g-h-1)= 6.753E+00  nbox=  0
     iter. #    11  RMS(g-h-1)= 1.174E-01  nbox= 10
     iter. #    21  RMS(g-h-1)= 3.765E-02  nbox= 10
     iter. #    31  RMS(g-h-1)= 1.901E-02  nbox= 10
     iter. #    41  RMS(g-h-1)= 9.922E-03  nbox= 10

     End of Laue-RISM calculation


     convergence has been achieved in    41 iterations


     solvent charge   -0.01006, renormalised to   -0.00000

     Total charge of solvent (in expand-cell)
     EtOH        -0.009800 e
     Total       -0.009800 e

     Chemical potential of solvation (in expand-cell)
     EtOH       GaussFluct   0.114391E+01 kcal/mol
     Total      GaussFluct   0.114391E+01 kcal/mol

     Starting wfc are   20 randomized atomic wfcs

     total cpu time spent up to now is        8.4 secs

     per-process dynamical memory:    30.9 Mb

     Self-consistent Calculation

     iteration #  1     ecut=    25.00 Ry     beta=0.40
     Davidson diagonalization with overlap
     ethr =  1.00E-02,  avg # of iterations =  3.3

     Laue-RISM Calculation

     convergence threshold    = 1.000E-02
     iter. #     1  RMS(g-h-1)= 1.278E+00  nbox=  0
     iter. #    11  RMS(g-h-1)= 1.503E-01  nbox= 10
     iter. #    21  RMS(g-h-1)= 2.071E-01  nbox= 10
     iter. #    31  RMS(g-h-1)= 5.869E-02  nbox=  8
     iter. #    41  RMS(g-h-1)= 4.166E-02  nbox=  8
     iter. #    51  RMS(g-h-1)= 2.493E-02  nbox= 10
     iter. #    61  RMS(g-h-1)= 1.145E-02  nbox= 10
     iter. #    62  RMS(g-h-1)= 9.987E-03  nbox= 10

     End of Laue-RISM calculation


     convergence has been achieved in    62 iterations


     solvent charge    0.02319, renormalised to    0.00000

     Total charge of solvent (in expand-cell)
     EtOH         0.023363 e
     Total        0.023363 e

     Chemical potential of solvation (in expand-cell)
     EtOH       GaussFluct  -0.354755E+01 kcal/mol
     Total      GaussFluct  -0.354755E+01 kcal/mol


     total cpu time spent up to now is       11.8 secs

     total energy              =      -8.74759038 Ry
     Harris-Foulkes estimate   =      -9.04064668 Ry
     estimated scf accuracy    <       0.65879170 Ry

     iteration #  2     ecut=    25.00 Ry     beta=0.40
     Davidson diagonalization with overlap
     ethr =  1.00E-02,  avg # of iterations =  2.7

     Laue-RISM Calculation

     convergence threshold    = 1.000E-02
     iter. #     1  RMS(g-h-1)= 7.679E-01  nbox=  0
     iter. #    11  RMS(g-h-1)= 6.458E-02  nbox=  9
     iter. #    21  RMS(g-h-1)= 3.394E-02  nbox= 10
     iter. #    30  RMS(g-h-1)= 8.543E-03  nbox= 10

     End of Laue-RISM calculation


     convergence has been achieved in    30 iterations


     solvent charge    0.00815, renormalised to    0.00000

     Total charge of solvent (in expand-cell)
     EtOH         0.008153 e
     Total        0.008153 e

     Chemical potential of solvation (in expand-cell)
     EtOH       GaussFluct   0.154940E+01 kcal/mol
     Total      GaussFluct   0.154940E+01 kcal/mol


     total cpu time spent up to now is       13.8 secs

     total energy              =      -9.05305172 Ry
     Harris-Foulkes estimate   =      -9.33474573 Ry
     estimated scf accuracy    <       2.00700282 Ry

     iteration #  3     ecut=    25.00 Ry     beta=0.40
     Davidson diagonalization with overlap
     ethr =  1.00E-02,  avg # of iterations =  1.0

     Laue-RISM Calculation

     convergence threshold    = 1.000E-02
     iter. #     1  RMS(g-h-1)= 1.871E-01  nbox=  0
     iter. #    11  RMS(g-h-1)= 1.485E-02  nbox=  9
     iter. #    16  RMS(g-h-1)= 9.468E-03  nbox= 10

     End of Laue-RISM calculation


     convergence has been achieved in    16 iterations


     solvent charge    0.01715, renormalised to    0.00000

     Total charge of solvent (in expand-cell)
     EtOH         0.017149 e
     Total        0.017149 e

     Chemical potential of solvation (in expand-cell)
     EtOH       GaussFluct   0.138750E+01 kcal/mol
     Total      GaussFluct   0.138750E+01 kcal/mol


     total cpu time spent up to now is       15.0 secs

     total energy              =      -8.96395533 Ry
     Harris-Foulkes estimate   =      -8.95760062 Ry
     estimated scf accuracy    <       0.04693813 Ry

     iteration #  4     ecut=    25.00 Ry     beta=0.40
     Davidson diagonalization with overlap
     ethr =  9.39E-04,  avg # of iterations =  2.0

     negative rho (up, down):  1.212E-05 0.000E+00

     Laue-RISM Calculation

     convergence threshold    = 1.000E-02
     iter. #     1  RMS(g-h-1)= 4.137E-01  nbox=  0
     iter. #    11  RMS(g-h-1)= 3.281E-02  nbox=  9
     iter. #    21  RMS(g-h-1)= 1.535E-02  nbox= 10
     iter. #    27  RMS(g-h-1)= 8.180E-03  nbox= 10

     End of Laue-RISM calculation


     convergence has been achieved in    27 iterations


     solvent charge    0.01606, renormalised to   -0.00000

     Total charge of solvent (in expand-cell)
     EtOH         0.015941 e
     Total        0.015941 e

     Chemical potential of solvation (in expand-cell)
     EtOH       GaussFluct   0.103552E+01 kcal/mol
     Total      GaussFluct   0.103552E+01 kcal/mol


     total cpu time spent up to now is       16.9 secs

     total energy              =      -8.99983013 Ry
     Harris-Foulkes estimate   =      -8.98427002 Ry
     estimated scf accuracy    <       0.06344479 Ry

     iteration #  5     ecut=    25.00 Ry     beta=0.40
     Davidson diagonalization with overlap
     ethr =  9.39E-04,  avg # of iterations =  1.0

     Laue-RISM Calculation

     convergence threshold    = 1.000E-02
     iter. #     1  RMS(g-h-1)= 1.299E+00  nbox=  0
     iter. #    11  RMS(g-h-1)= 8.890E-02  nbox=  9
     iter. #    21  RMS(g-h-1)= 1.917E-02  nbox= 10
     iter. #    27  RMS(g-h-1)= 9.901E-03  nbox= 10

     End of Laue-RISM calculation


     convergence has been achieved in    27 iterations


     solvent charge   -0.00362, renormalised to    0.00000

     Total charge of solvent (in expand-cell)
     EtOH        -0.003506 e
     Total       -0.003506 e

     Chemical potential of solvation (in expand-cell)
     EtOH       GaussFluct   0.135032E+01 kcal/mol
     Total      GaussFluct   0.135032E+01 kcal/mol


     total cpu time spent up to now is       18.6 secs

     total energy              =      -8.95572554 Ry
     Harris-Foulkes estimate   =      -9.00649818 Ry
     estimated scf accuracy    <       0.12195030 Ry

     iteration #  6     ecut=    25.00 Ry     beta=0.40
     Davidson diagonalization with overlap
     ethr =  9.39E-04,  avg # of iterations =  1.7

     Laue-RISM Calculation

     convergence threshold    = 3.506E-03
     iter. #     1  RMS(g-h-1)= 1.556E-01  nbox=  0
     iter. #    11  RMS(g-h-1)= 9.792E-03  nbox=  9
     iter. #    21  RMS(g-h-1)= 4.448E-03  nbox= 10
     iter. #    24  RMS(g-h-1)= 3.344E-03  nbox= 10

     End of Laue-RISM calculation


     convergence has been achieved in    24 iterations


     solvent charge   -0.00297, renormalised to    0.00000

     Total charge of solvent (in expand-cell)
     EtOH        -0.002862 e
     Total       -0.002862 e

     Chemical potential of solvation (in expand-cell)
     EtOH       GaussFluct   0.147195E+01 kcal/mol
     Total      GaussFluct   0.147195E+01 kcal/mol


     total cpu time spent up to now is       20.0 secs

     total energy              =      -8.96815377 Ry
     Harris-Foulkes estimate   =      -8.97046171 Ry
     estimated scf accuracy    <       0.01440929 Ry

     iteration #  7     ecut=    25.00 Ry     beta=0.40
     Davidson diagonalization with overlap
     c_bands:  1 eigenvalues not converged
     ethr =  2.88E-04,  avg # of iterations =  9.7

     Laue-RISM Calculation

     convergence threshold    = 1.322E-03
     iter. #     1  RMS(g-h-1)= 6.835E-02  nbox=  0
     iter. #    11  RMS(g-h-1)= 3.949E-03  nbox=  9
     iter. #    21  RMS(g-h-1)= 1.331E-03  nbox= 10
     iter. #    22  RMS(g-h-1)= 1.232E-03  nbox= 10

     End of Laue-RISM calculation


     convergence has been achieved in    22 iterations


     solvent charge   -0.00120, renormalised to    0.00000

     Total charge of solvent (in expand-cell)
     EtOH        -0.001201 e
     Total       -0.001201 e

     Chemical potential of solvation (in expand-cell)
     EtOH       GaussFluct   0.151707E+01 kcal/mol
     Total      GaussFluct   0.151707E+01 kcal/mol


     total cpu time spent up to now is       21.3 secs

     total energy              =      -8.96834792 Ry
     Harris-Foulkes estimate   =      -8.96882119 Ry
     estimated scf accuracy    <       0.00693107 Ry

     iteration #  8     ecut=    25.00 Ry     beta=0.40
     Davidson diagonalization with overlap
     ethr =  1.39E-04,  avg # of iterations =  3.0

     Laue-RISM Calculation

     convergence threshold    = 3.974E-04
     iter. #     1  RMS(g-h-1)= 2.139E-01  nbox=  0
     iter. #    11  RMS(g-h-1)= 1.544E-02  nbox=  9
     iter. #    21  RMS(g-h-1)= 3.746E-03  nbox= 10
     iter. #    31  RMS(g-h-1)= 1.145E-03  nbox= 10
     iter. #    41  RMS(g-h-1)= 6.314E-04  nbox= 10
     iter. #    47  RMS(g-h-1)= 3.940E-04  nbox= 10

     End of Laue-RISM calculation


     convergence has been achieved in    47 iterations


     solvent charge    0.00022, renormalised to    0.00000

     Total charge of solvent (in expand-cell)
     EtOH         0.000316 e
     Total        0.000316 e

     Chemical potential of solvation (in expand-cell)
     EtOH       GaussFluct   0.135852E+01 kcal/mol
     Total      GaussFluct   0.135852E+01 kcal/mol


     total cpu time spent up to now is       24.1 secs

     total energy              =      -8.97000933 Ry
     Harris-Foulkes estimate   =      -8.96846375 Ry
     estimated scf accuracy    <       0.00281465 Ry

     iteration #  9     ecut=    25.00 Ry     beta=0.40
     Davidson diagonalization with overlap
     ethr =  5.63E-05,  avg # of iterations =  5.0

     negative rho (up, down):  1.829E-04 0.000E+00

     Laue-RISM Calculation

     convergence threshold    = 4.327E-03
     iter. #     1  RMS(g-h-1)= 3.620E-01  nbox=  0
     iter. #    11  RMS(g-h-1)= 1.943E-02  nbox=  9
     iter. #    21  RMS(g-h-1)= 4.171E-03  nbox= 10

     End of Laue-RISM calculation


     convergence has been achieved in    21 iterations


     solvent charge   -0.00324, renormalised to    0.00000

     Total charge of solvent (in expand-cell)
     EtOH        -0.003278 e
     Total       -0.003278 e

     Chemical potential of solvation (in expand-cell)
     EtOH       GaussFluct   0.133680E+01 kcal/mol
     Total      GaussFluct   0.133680E+01 kcal/mol


     total cpu time spent up to now is       25.5 secs

     total energy              =      -8.96810564 Ry
     Harris-Foulkes estimate   =      -8.97337181 Ry
     estimated scf accuracy    <       0.01687161 Ry

     iteration # 10     ecut=    25.00 Ry     beta=0.40
     Davidson diagonalization with overlap
     ethr =  5.63E-05,  avg # of iterations =  3.7

     negative rho (up, down):  1.705E-04 0.000E+00

     Laue-RISM Calculation

     convergence threshold    = 1.000E-04
     iter. #     1  RMS(g-h-1)= 2.306E-02  nbox=  0
     iter. #    11  RMS(g-h-1)= 3.128E-03  nbox= 10
     iter. #    21  RMS(g-h-1)= 9.274E-04  nbox= 10
     iter. #    31  RMS(g-h-1)= 3.757E-04  nbox= 10
     iter. #    41  RMS(g-h-1)= 2.632E-04  nbox= 10
     iter. #    51  RMS(g-h-1)= 1.960E-04  nbox= 10
     iter. #    61  RMS(g-h-1)= 1.650E-04  nbox=  7
     iter. #    71  RMS(g-h-1)= 1.273E-04  nbox= 10
     iter. #    81  RMS(g-h-1)= 1.063E-04  nbox= 10
     iter. #    87  RMS(g-h-1)= 9.891E-05  nbox= 10

     End of Laue-RISM calculation


     convergence has been achieved in    87 iterations


     solvent charge    0.00016, renormalised to    0.00000

     Total charge of solvent (in expand-cell)
     EtOH         0.000126 e
     Total        0.000126 e

     Chemical potential of solvation (in expand-cell)
     EtOH       GaussFluct   0.133537E+01 kcal/mol
     Total      GaussFluct   0.133537E+01 kcal/mol


     total cpu time spent up to now is       29.4 secs

     total energy              =      -8.96761240 Ry
     Harris-Foulkes estimate   =      -8.96775206 Ry
     estimated scf accuracy    <       0.00053528 Ry

     iteration # 11     ecut=    25.00 Ry     beta=0.40
     Davidson diagonalization with overlap
     ethr =  1.07E-05,  avg # of iterations =  5.7

     negative rho (up, down):  1.750E-04 0.000E+00

     Laue-RISM Calculation

     convergence threshold    = 1.123E-04
     iter. #     1  RMS(g-h-1)= 4.119E-02  nbox=  0
     iter. #    11  RMS(g-h-1)= 1.369E-03  nbox=  9
     iter. #    21  RMS(g-h-1)= 1.989E-04  nbox= 10
     iter. #    31  RMS(g-h-1)= 1.315E-04  nbox= 10
     iter. #    37  RMS(g-h-1)= 1.114E-04  nbox= 10

     End of Laue-RISM calculation


     convergence has been achieved in    37 iterations


     solvent charge    0.00017, renormalised to    0.00000

     Total charge of solvent (in expand-cell)
     EtOH         0.000097 e
     Total        0.000097 e

     Chemical potential of solvation (in expand-cell)
     EtOH       GaussFluct   0.130563E+01 kcal/mol
     Total      GaussFluct   0.130563E+01 kcal/mol


     total cpu time spent up to now is       31.7 secs

     total energy              =      -8.96810021 Ry
     Harris-Foulkes estimate   =      -8.96814733 Ry
     estimated scf accuracy    <       0.00109060 Ry

     iteration # 12     ecut=    25.00 Ry     beta=0.40
     Davidson diagonalization with overlap
     ethr =  1.07E-05,  avg # of iterations =  1.0

     negative rho (up, down):  4.249E-05 0.000E+00

     Laue-RISM Calculation

     convergence threshold    = 1.982E-04
     iter. #     1  RMS(g-h-1)= 5.253E-02  nbox=  0
     iter. #    11  RMS(g-h-1)= 1.905E-03  nbox=  9
     iter. #    21  RMS(g-h-1)= 9.832E-04  nbox= 10
     iter. #    31  RMS(g-h-1)= 3.859E-04  nbox= 10
     iter. #    41  RMS(g-h-1)= 1.882E-04  nbox= 10

     End of Laue-RISM calculation


     convergence has been achieved in    41 iterations


     solvent charge   -0.00010, renormalised to    0.00000

     Total charge of solvent (in expand-cell)
     EtOH        -0.000028 e
     Total       -0.000028 e

     Chemical potential of solvation (in expand-cell)
     EtOH       GaussFluct   0.134625E+01 kcal/mol
     Total      GaussFluct   0.134625E+01 kcal/mol


     total cpu time spent up to now is       34.1 secs

     total energy              =      -8.96794723 Ry
     Harris-Foulkes estimate   =      -8.96792504 Ry
     estimated scf accuracy    <       0.00167068 Ry

     iteration # 13     ecut=    25.00 Ry     beta=0.40
     Davidson diagonalization with overlap
     ethr =  1.07E-05,  avg # of iterations =  1.0

     Laue-RISM Calculation

     convergence threshold    = 1.000E-04
     iter. #     1  RMS(g-h-1)= 7.144E-02  nbox=  0
     iter. #    11  RMS(g-h-1)= 3.645E-03  nbox=  9
     iter. #    21  RMS(g-h-1)= 1.127E-03  nbox= 10
     iter. #    31  RMS(g-h-1)= 3.520E-04  nbox= 10
     iter. #    41  RMS(g-h-1)= 1.357E-04  nbox= 10
     iter. #    51  RMS(g-h-1)= 1.036E-04  nbox= 10
     iter. #    54  RMS(g-h-1)= 9.897E-05  nbox= 10

     End of Laue-RISM calculation


     convergence has been achieved in    54 iterations


     solvent charge    0.00021, renormalised to    0.00000

     Total charge of solvent (in expand-cell)
     EtOH         0.000187 e
     Total        0.000187 e

     Chemical potential of solvation (in expand-cell)
     EtOH       GaussFluct   0.137931E+01 kcal/mol
     Total      GaussFluct   0.137931E+01 kcal/mol


     total cpu time spent up to now is       37.1 secs

     total energy              =      -8.96791045 Ry
     Harris-Foulkes estimate   =      -8.96798003 Ry
     estimated scf accuracy    <       0.00036782 Ry

     iteration # 14     ecut=    25.00 Ry     beta=0.40
     Davidson diagonalization with overlap
     ethr =  7.36E-06,  avg # of iterations =  1.7

     Laue-RISM Calculation

     convergence threshold    = 1.000E-04
     iter. #     1  RMS(g-h-1)= 5.179E-02  nbox=  0
     iter. #    11  RMS(g-h-1)= 1.097E-03  nbox=  9
     iter. #    21  RMS(g-h-1)= 5.528E-04  nbox= 10
     iter. #    31  RMS(g-h-1)= 2.084E-04  nbox= 10
     iter. #    41  RMS(g-h-1)= 1.164E-04  nbox= 10
     iter. #    43  RMS(g-h-1)= 9.703E-05  nbox= 10

     End of Laue-RISM calculation


     convergence has been achieved in    43 iterations


     solvent charge    0.00011, renormalised to    0.00000

     Total charge of solvent (in expand-cell)
     EtOH         0.000195 e
     Total        0.000195 e

     Chemical potential of solvation (in expand-cell)
     EtOH       GaussFluct   0.134014E+01 kcal/mol
     Total      GaussFluct   0.134014E+01 kcal/mol


     total cpu time spent up to now is       39.4 secs

     total energy              =      -8.96827953 Ry
     Harris-Foulkes estimate   =      -8.96842426 Ry
     estimated scf accuracy    <       0.00039025 Ry

     iteration # 15     ecut=    25.00 Ry     beta=0.40
     Davidson diagonalization with overlap
     ethr =  7.36E-06,  avg # of iterations =  2.7

     negative rho (up, down):  3.745E-07 0.000E+00

     Laue-RISM Calculation

     convergence threshold    = 1.000E-04
     iter. #     1  RMS(g-h-1)= 1.421E-02  nbox=  0
     iter. #    11  RMS(g-h-1)= 3.235E-04  nbox=  9
     iter. #    21  RMS(g-h-1)= 1.739E-04  nbox= 10
     iter. #    30  RMS(g-h-1)= 9.973E-05  nbox= 10

     End of Laue-RISM calculation


     convergence has been achieved in    30 iterations


     solvent charge    0.00007, renormalised to    0.00000

     Total charge of solvent (in expand-cell)
     EtOH         0.000130 e
     Total        0.000130 e

     Chemical potential of solvation (in expand-cell)
     EtOH       GaussFluct   0.132895E+01 kcal/mol
     Total      GaussFluct   0.132895E+01 kcal/mol


     total cpu time spent up to now is       41.4 secs

     total energy              =      -8.96815288 Ry
     Harris-Foulkes estimate   =      -8.96819038 Ry
     estimated scf accuracy    <       0.00001194 Ry

     iteration # 16     ecut=    25.00 Ry     beta=0.40
     Davidson diagonalization with overlap
     ethr =  2.39E-07,  avg # of iterations =  4.7

     Laue-RISM Calculation

     convergence threshold    = 1.000E-04
     iter. #     1  RMS(g-h-1)= 7.986E-03  nbox=  0
     iter. #    11  RMS(g-h-1)= 1.980E-04  nbox= 10
     iter. #    18  RMS(g-h-1)= 9.737E-05  nbox= 10

     End of Laue-RISM calculation


     convergence has been achieved in    18 iterations


     solvent charge    0.00004, renormalised to    0.00000

     Total charge of solvent (in expand-cell)
     EtOH         0.000110 e
     Total        0.000110 e

     Chemical potential of solvation (in expand-cell)
     EtOH       GaussFluct   0.133368E+01 kcal/mol
     Total      GaussFluct   0.133368E+01 kcal/mol


     total cpu time spent up to now is       42.9 secs

     total energy              =      -8.96816398 Ry
     Harris-Foulkes estimate   =      -8.96814886 Ry
     estimated scf accuracy    <       0.00000486 Ry

     iteration # 17     ecut=    25.00 Ry     beta=0.40
     Davidson diagonalization with overlap
     ethr =  9.71E-08,  avg # of iterations =  1.3

     Laue-RISM Calculation

     convergence threshold    = 1.000E-04
     iter. #     1  RMS(g-h-1)= 8.455E-04  nbox=  0
     iter. #     8  RMS(g-h-1)= 9.592E-05  nbox=  6

     End of Laue-RISM calculation


     convergence has been achieved in     8 iterations


     solvent charge    0.00006, renormalised to    0.00000

     Total charge of solvent (in expand-cell)
     EtOH         0.000136 e
     Total        0.000136 e

     Chemical potential of solvation (in expand-cell)
     EtOH       GaussFluct   0.133281E+01 kcal/mol
     Total      GaussFluct   0.133281E+01 kcal/mol


     total cpu time spent up to now is       43.7 secs

     total energy              =      -8.96817153 Ry
     Harris-Foulkes estimate   =      -8.96817435 Ry
     estimated scf accuracy    <       0.00000454 Ry

     iteration # 18     ecut=    25.00 Ry     beta=0.40
     Davidson diagonalization with overlap
     ethr =  9.08E-08,  avg # of iterations =  1.0

     negative rho (up, down):  1.878E-07 0.000E+00

     Laue-RISM Calculation

     convergence threshold    = 1.000E-04
     iter. #     1  RMS(g-h-1)= 7.260E-03  nbox=  0
     iter. #    11  RMS(g-h-1)= 1.629E-04  nbox= 10
     iter. #    16  RMS(g-h-1)= 9.023E-05  nbox= 10

     End of Laue-RISM calculation


     convergence has been achieved in    16 iterations


     solvent charge    0.00013, renormalised to    0.00000

     Total charge of solvent (in expand-cell)
     EtOH         0.000185 e
     Total        0.000185 e

     Chemical potential of solvation (in expand-cell)
     EtOH       GaussFluct   0.132594E+01 kcal/mol
     Total      GaussFluct   0.132594E+01 kcal/mol


     total cpu time spent up to now is       44.9 secs

     total energy              =      -8.96817487 Ry
     Harris-Foulkes estimate   =      -8.96819636 Ry
     estimated scf accuracy    <       0.00000216 Ry

     iteration # 19     ecut=    25.00 Ry     beta=0.40
     Davidson diagonalization with overlap
     ethr =  4.32E-08,  avg # of iterations =  2.0

     negative rho (up, down):  1.459E-07 0.000E+00

     Laue-RISM Calculation

     convergence threshold    = 1.000E-04
     iter. #     1  RMS(g-h-1)= 7.175E-04  nbox=  0
     iter. #     9  RMS(g-h-1)= 9.842E-05  nbox=  7

     End of Laue-RISM calculation


     convergence has been achieved in     9 iterations


     solvent charge    0.00008, renormalised to    0.00000

     Total charge of solvent (in expand-cell)
     EtOH         0.000130 e
     Total        0.000130 e

     Chemical potential of solvation (in expand-cell)
     EtOH       GaussFluct   0.132573E+01 kcal/mol
     Total      GaussFluct   0.132573E+01 kcal/mol


     total cpu time spent up to now is       45.7 secs

     total energy              =      -8.96816961 Ry
     Harris-Foulkes estimate   =      -8.96817048 Ry
     estimated scf accuracy    <       0.00000248 Ry

     iteration # 20     ecut=    25.00 Ry     beta=0.40
     Davidson diagonalization with overlap
     ethr =  4.32E-08,  avg # of iterations =  1.0

     Laue-RISM Calculation

     convergence threshold    = 1.000E-04
     iter. #     1  RMS(g-h-1)= 3.213E-03  nbox=  0
     iter. #    11  RMS(g-h-1)= 9.909E-05  nbox=  9

     End of Laue-RISM calculation


     convergence has been achieved in    11 iterations


     solvent charge    0.00011, renormalised to   -0.00000

     Total charge of solvent (in expand-cell)
     EtOH         0.000177 e
     Total        0.000177 e

     Chemical potential of solvation (in expand-cell)
     EtOH       GaussFluct   0.133015E+01 kcal/mol
     Total      GaussFluct   0.133015E+01 kcal/mol


     total cpu time spent up to now is       46.7 secs

     total energy              =      -8.96817113 Ry
     Harris-Foulkes estimate   =      -8.96815740 Ry
     estimated scf accuracy    <       0.00000124 Ry

     iteration # 21     ecut=    25.00 Ry     beta=0.40
     Davidson diagonalization with overlap
     ethr =  2.48E-08,  avg # of iterations =  1.7

     Laue-RISM Calculation

     convergence threshold    = 1.000E-04
     iter. #     1  RMS(g-h-1)= 2.110E-03  nbox=  0
     iter. #    11  RMS(g-h-1)= 1.600E-04  nbox=  9
     iter. #    15  RMS(g-h-1)= 8.475E-05  nbox= 10

     End of Laue-RISM calculation


     convergence has been achieved in    15 iterations


     solvent charge    0.00011, renormalised to    0.00000

     Total charge of solvent (in expand-cell)
     EtOH         0.000170 e
     Total        0.000170 e

     Chemical potential of solvation (in expand-cell)
     EtOH       GaussFluct   0.132879E+01 kcal/mol
     Total      GaussFluct   0.132879E+01 kcal/mol


     total cpu time spent up to now is       47.6 secs

     End of self-consistent calculation

          k = 0.0000 0.0000 0.0000 (  4025 PWs)   bands (ev):

    -6.1903  -5.4599  -4.2798  -2.9601  -1.6965  -0.4587  -0.2275

          k = 0.0000-0.5000 0.0000 (  4030 PWs)   bands (ev):

    -3.6999  -3.6780  -3.0800  -3.0600  -2.5250  -0.6153  -0.1769

          k =-0.5000-0.5000 0.0000 (  4048 PWs)   bands (ev):

    -2.1776  -2.1775  -1.2701  -1.2698   0.3364   0.3372   0.6690

     the Fermi energy is    -3.0231 ev

!    total energy              =      -8.96815597 Ry
     Harris-Foulkes estimate   =      -8.96816044 Ry
     estimated scf accuracy    <       0.00000011 Ry

     The total energy is the sum of the following terms:

     one-electron contribution =      42.96488749 Ry
     hartree contribution      =     -21.02948479 Ry
     xc contribution           =      -8.34146328 Ry
     ewald contribution        =     -22.56020496 Ry
     solvation energy (RISM)   =       0.00423794 Ry
     smearing contrib. (-TS)   =      -0.00612838 Ry

     convergence has been achieved in  21 iterations

     Writing output data file Li-EtOH.save

     init_run     :      4.28s CPU      4.35s WALL (       1 calls)
     electrons    :     38.18s CPU     39.19s WALL (       1 calls)

     Called by init_run:
     wfcinit      :      0.06s CPU      0.06s WALL (       1 calls)
     potinit      :      3.63s CPU      3.69s WALL (       1 calls)

     Called by electrons:
     c_bands      :      0.96s CPU      0.99s WALL (      21 calls)
     sum_band     :      0.72s CPU      0.73s WALL (      21 calls)
     v_of_rho     :      0.99s CPU      0.99s WALL (      22 calls)
     newd         :      0.49s CPU      0.51s WALL (      22 calls)
     mix_rho      :      0.09s CPU      0.09s WALL (      21 calls)

     Called by c_bands:
     init_us_2    :      0.02s CPU      0.02s WALL (     129 calls)
     cegterg      :      0.92s CPU      0.95s WALL (      63 calls)

     Called by sum_band:
     sum_band:bec :      0.00s CPU      0.00s WALL (      63 calls)
     addusdens    :      0.45s CPU      0.45s WALL (      21 calls)

     Called by *egterg:
     h_psi        :      0.77s CPU      0.80s WALL (     236 calls)
     s_psi        :      0.04s CPU      0.04s WALL (     236 calls)
     g_psi        :      0.00s CPU      0.00s WALL (     170 calls)
     cdiaghg      :      0.02s CPU      0.02s WALL (     233 calls)

     Called by h_psi:
     h_psi:pot    :      0.77s CPU      0.79s WALL (     236 calls)
     h_psi:calbec :      0.07s CPU      0.07s WALL (     236 calls)
     vloc_psi     :      0.66s CPU      0.69s WALL (     236 calls)
     add_vuspsi   :      0.04s CPU      0.04s WALL (     236 calls)

     General routines
     calbec       :      0.10s CPU      0.09s WALL (     299 calls)
     fft          :      0.54s CPU      0.54s WALL (     415 calls)
     ffts         :      0.02s CPU      0.02s WALL (      43 calls)
     fftw         :      0.72s CPU      0.73s WALL (    2723 calls)
     fftc         :      0.02s CPU      0.02s WALL (      44 calls)
     interpolate  :      0.06s CPU      0.06s WALL (      43 calls)
     davcio       :      0.00s CPU      0.00s WALL (       3 calls)

     Parallel routines
     fft_scatter  :      2.13s CPU      2.14s WALL (    8827 calls)

     RISM routines
     1DRISM_pre   :      0.00s CPU      0.00s WALL (       1 calls)
     1DRISM_run   :      4.02s CPU      4.01s WALL (       1 calls)
     3DRISM_pre   :      1.12s CPU      1.13s WALL (       1 calls)
     3DRISM_run   :     37.22s CPU     38.21s WALL (      22 calls)
     3DRISM_vsol  :      0.05s CPU      0.05s WALL (      22 calls)
     3DRISM_esol  :      0.00s CPU      0.00s WALL (      22 calls)

     PWSCF        :    46.64s CPU        47.76s WALL


   This run was terminated on:  23:19:29   9Feb2017            

=------------------------------------------------------------------------------=
   JOB DONE.
=------------------------------------------------------------------------------=
