
     Program PWSCF v.6.1 starts on 15Apr2021 at 18:50:52 

     This program is part of the open-source Quantum ESPRESSO suite
     for quantum simulation of materials; please cite
         "P. Giannozzi et al., J. Phys.:Condens. Matter 21 395502 (2009);
          URL http://www.quantum-espresso.org", 
     in publications or presentations arising from this work. More details at
     http://www.quantum-espresso.org/quote

     Parallel version (MPI), running on     4 processors
     R & G space division:  proc/nbgrp/npool/nimage =       4
     Waiting for input...
     Reading input from standard input

     Current dimensions of program PWSCF are:
     Max number of different atomic species (ntypx) = 10
     Max number of k-points (npk) =  40000
     Max angular momentum in pseudopotentials (lmaxx) =  3
     Message from routine iosys_1drism:
     default density from MOL file(Ethanol.oplsua.MOL) is used

     Subspace diagonalization in iterative solution of the eigenvalue problem:
     a serial algorithm will be used


     Molecule # 1 for EtOH read from file:
     /Users/otani/Program/q-e/pseudo/Ethanol.oplsua.MOL
     Density:
         0.32592581E+01 cell^-1
         0.15283678E-02 bohr^-3
         0.17126692E+02 mol/L
         0.78900000E+00 g/cm^3
     Number of atoms:   4
     Atoms:
       #  atom      X (angs)      Y (angs)      Z (angs)      Q (e)         E (kcal/mol)  S (angs)
       1  CH3/et   -0.15329132   -1.20449407    0.00000000    0.00000000    0.20700000    3.77500000
       2  CH2/et    0.52122770    0.14806752    0.00000000    0.26500000    0.11800000    3.90500000
       3  O/et     -0.49452384    1.13851228    0.00000000   -0.70000000    0.17000000    3.07000000
       4  H/et     -0.09079379    2.00792208    0.00000000    0.43500000    0.04600000    1.00000000


     1D-RISM info
     ------------
     closure equation        =           KH
     temperature             =     300.0000  kelvin
     coulomb smearing radius =       2.0000  bohr
     number of solvent sites =            4
     number of grids         =         5008
     maximum of R-space      =     999.8003  bohr
     maximum of G-space      =      15.7315  bohr^-1
     number of iterations    =        50000
     convergence threshold   =      1.0E-08
     Gaussian width of bonds =       0.4000  bohr
     size of MDIIS           =           20
     step of MDIIS           =       0.5000
     number of processes     =            4


     1D-RISM Calculation

     iter. #     1  RMS(g-h-1)= 1.138E-04  nbox=  0  T= 2400.00K
     iter. #   101  RMS(g-h-1)= 2.479E-06  nbox= 17  T=  316.05K
     iter. #   201  RMS(g-h-1)= 7.367E-08  nbox= 20  T=  300.00K
     iter. #   301  RMS(g-h-1)= 3.575E-08  nbox= 20  T=  300.00K
     iter. #   401  RMS(g-h-1)= 2.597E-08  nbox= 20  T=  300.00K
     iter. #   501  RMS(g-h-1)= 2.019E-08  nbox= 20  T=  300.00K
     iter. #   601  RMS(g-h-1)= 1.233E-08  nbox= 20  T=  300.00K
     iter. #   701  RMS(g-h-1)= 1.018E-08  nbox= 20  T=  300.00K
     iter. #   708  RMS(g-h-1)= 9.972E-09  nbox= 20  T=  300.00K

     End of 1D-RISM calculation


     convergence has been achieved in   708 iterations


     Chemical potential of solvation

     EtOH       EtOH       Closure     -0.142013E+01 kcal/mol
                           GaussFluct  -0.697666E+01 kcal/mol

                Total      Closure     -0.142013E+01 kcal/mol
                           GaussFluct  -0.697666E+01 kcal/mol


     Parallelization info
     --------------------
     sticks:   dense  smooth     PW     G-vecs:    dense   smooth      PW
     Min         187      85     27                30391     9019    1647
     Max         188      86     28                30426     9027    1655
     Sum         749     341    109               121599    36093    6607



     bravais-lattice index     =            0
     lattice parameter (alat)  =       6.4818  a.u.
     unit-cell volume          =    2132.5090 (a.u.)^3
     number of atoms/cell      =            5
     number of atomic types    =            1
     number of electrons       =         5.00
     number of Kohn-Sham states=            7
     kinetic-energy cutoff     =      25.0000  Ry
     charge density cutoff     =     225.0000  Ry
     convergence threshold     =      1.0E-06
     mixing beta               =       0.4000
     number of iterations used =            8  plain     mixing
     Exchange-correlation      =  SLA  PW   PBE  PBE ( 1  4  3  4 0 0)

     Effective Screening Medium Method
     =================================
     Boundary Conditions: Vacuum-Slab-Vacuum
     total charge in unit cell        =   0.0000
     grid points for fit at edges     =        4 


     celldm(1)=   6.481761  celldm(2)=   0.000000  celldm(3)=   0.000000
     celldm(4)=   0.000000  celldm(5)=   0.000000  celldm(6)=   0.000000

     crystal axes: (cart. coord. in units of alat)
               a(1) = (   1.000000   0.000000   0.000000 )  
               a(2) = (   0.000000   1.000000   0.000000 )  
               a(3) = (   0.000000   0.000000   7.830904 )  

     reciprocal axes: (cart. coord. in units 2 pi/alat)
               b(1) = (  1.000000  0.000000  0.000000 )  
               b(2) = (  0.000000  1.000000  0.000000 )  
               b(3) = (  0.000000  0.000000  0.127699 )  


     PseudoPot. # 1 for Li read from file:
     /Users/otani/Program/q-e/pseudo/Li.pbe-n-van.UPF
     MD5 check sum: 54cf726ce87e8589a4eef9a4a2beed93
     Pseudo is Ultrasoft + core correction, Zval =  1.0
     Generated by new atomic code, or converted to UPF format
     Using radial grid of  751 points,  2 beta functions with: 
                l(1) =   1
                l(2) =   1
     Q(r) pseudized with  8 coefficients,  rinner =    1.000   1.000   1.000


     atomic species   valence    mass     pseudopotential
        Li             1.00     6.94100     Li( 1.00)

      8 Sym. Ops. (no inversion) found



   Cartesian axes

     site n.     atom                  positions (alat units)
         1           Li  tau(   1) = (   0.0000000   0.0000000  -1.0000000  )
         2           Li  tau(   2) = (   0.0000000   0.0000000   0.0000000  )
         3           Li  tau(   3) = (   0.0000000   0.0000000   1.0000000  )
         4           Li  tau(   4) = (   0.5000000   0.5000000  -0.5000000  )
         5           Li  tau(   5) = (   0.5000000   0.5000000   0.5000000  )

     number of k points=     3  gaussian smearing, width (Ry)=  0.0100
                       cart. coord. in units 2pi/alat
        k(    1) = (   0.0000000   0.0000000   0.0000000), wk =   0.5000000
        k(    2) = (   0.0000000  -0.5000000   0.0000000), wk =   1.0000000
        k(    3) = (  -0.5000000  -0.5000000   0.0000000), wk =   0.5000000

     Dense  grid:   121599 G-vectors     FFT dimensions: (  32,  32, 243)

     Smooth grid:    36093 G-vectors     FFT dimensions: (  24,  24, 162)

     Estimated max dynamical RAM per process >      18.28MB

     Estimated total allocated dynamical RAM >      73.13MB

     Solute:
       # atom     E (kcal/mol)  S (angs)
       1  Li      0.02500000    2.18359276    UFF
       2  Li      0.02500000    2.18359276    UFF
       3  Li      0.02500000    2.18359276    UFF
       4  Li      0.02500000    2.18359276    UFF
       5  Li      0.02500000    2.18359276    UFF

     Wall:
       Density =    0.01000000  bohr^-3
       E       =    0.10000000  kcal/mol
       S       =    4.00000000  angs


     Laue-RISM info
     --------------
     closure equation        =           KH
     temperature             =     300.0000  kelvin
     coulomb smearing radius =       2.0000  bohr
     number of solvent sites =            4
     solvent sites           =   CH3/et  CH2/et    O/et    H/et
     number of iterations    =         5000
     convergence threshold   =      1.0E-05
     convergence level       =       0.1000
     size of MDIIS           =           10
     step of MDIIS           =       0.8000
     solvent cutoff          =     144.0000  Ry
     Custom grid:    62353 G-vectors     FFT dimensions: (  25,  25, 200)

     Boundary Conditions        : Vacuum-Slab-Solvent
     unit-cell (in bohr)        : [ -25.379022  25.379022]
     expand-cell (in bohr)      : [ -25.379022  76.137066]
     solvent of right (in bohr) : [   3.299273  76.137066]
     buffer  of right (in bohr) : [   1.268951   3.299273]
     repulsive wall (in bohr)   : [  -Infinity   0.953727]
     reference of potential     : right-hand side
     #grids to fit at edges of unit-cell =    4
     Laue grid:      489 Gxy-vectors     FFT dimensions: (  25,  25, 400)


     Initial potential from superposition of free atoms

     starting charge    4.97665, renormalised to    5.00000

     negative rho (up, down):  2.041E-05 0.000E+00

     Laue-RISM Calculation

     convergence threshold    = 5.012E-03
     iter. #     1  RMS(g-h-1)= 7.711E-01  nbox=  0
     iter. #    11  RMS(g-h-1)= 2.545E-02  nbox= 10
     iter. #    21  RMS(g-h-1)= 1.133E-02  nbox= 10
     iter. #    31  RMS(g-h-1)= 6.458E-03  nbox= 10
     iter. #    34  RMS(g-h-1)= 4.898E-03  nbox= 10

     End of Laue-RISM calculation


     convergence has been achieved in    34 iterations


     solvent charge   -0.01431, renormalised to   -0.00000

     Total number of solvent (in expand-cell)
     EtOH           4.200758

     Total charge of solvent (in expand-cell)
     EtOH          -0.014310 e
     Total         -0.014310 e

     Chemical potential of solvation (in expand-cell)
     EtOH       GaussFluct  -0.136380E+00 kcal/mol
     Total      GaussFluct  -0.136380E+00 kcal/mol

     Starting wfc are   20 randomized atomic wfcs

     total cpu time spent up to now is       67.1 secs

     Self-consistent Calculation

     iteration #  1     ecut=    25.00 Ry     beta=0.40
     Davidson diagonalization with overlap
     ethr =  1.00E-02,  avg # of iterations =  3.0

     Laue-RISM Calculation

     convergence threshold    = 5.012E-03
     iter. #     1  RMS(g-h-1)= 1.857E-01  nbox=  0
     iter. #    11  RMS(g-h-1)= 3.337E-02  nbox= 10
     iter. #    21  RMS(g-h-1)= 2.622E-02  nbox= 10
     iter. #    31  RMS(g-h-1)= 1.649E-02  nbox= 10
     iter. #    41  RMS(g-h-1)= 1.323E-02  nbox= 10
     iter. #    51  RMS(g-h-1)= 8.144E-03  nbox= 10
     iter. #    58  RMS(g-h-1)= 4.520E-03  nbox= 10

     End of Laue-RISM calculation


     convergence has been achieved in    58 iterations


     solvent charge   -0.01912, renormalised to    0.00000

     Total number of solvent (in expand-cell)
     EtOH           4.208685

     Total charge of solvent (in expand-cell)
     EtOH          -0.019116 e
     Total         -0.019116 e

     Chemical potential of solvation (in expand-cell)
     EtOH       GaussFluct  -0.454477E+00 kcal/mol
     Total      GaussFluct  -0.454477E+00 kcal/mol


     total cpu time spent up to now is       79.2 secs

     total energy              =      -8.71285297 Ry
     Harris-Foulkes estimate   =      -9.01262250 Ry
     estimated scf accuracy    <       0.58556681 Ry

     iteration #  2     ecut=    25.00 Ry     beta=0.40
     Davidson diagonalization with overlap
     ethr =  1.00E-02,  avg # of iterations =  1.0

     Laue-RISM Calculation

     convergence threshold    = 5.012E-03
     iter. #     1  RMS(g-h-1)= 6.487E-02  nbox=  0
     iter. #    11  RMS(g-h-1)= 4.815E-03  nbox= 10

     End of Laue-RISM calculation


     convergence has been achieved in    11 iterations


     solvent charge    0.00442, renormalised to    0.00000

     Total number of solvent (in expand-cell)
     EtOH           4.206981

     Total charge of solvent (in expand-cell)
     EtOH           0.004418 e
     Total          0.004418 e

     Chemical potential of solvation (in expand-cell)
     EtOH       GaussFluct   0.364256E+00 kcal/mol
     Total      GaussFluct   0.364256E+00 kcal/mol


     total cpu time spent up to now is       81.8 secs

     total energy              =      -8.56272759 Ry
     Harris-Foulkes estimate   =      -9.26339338 Ry
     estimated scf accuracy    <       3.08808082 Ry

     iteration #  3     ecut=    25.00 Ry     beta=0.40
     Davidson diagonalization with overlap
     ethr =  1.00E-02,  avg # of iterations =  1.0

     Laue-RISM Calculation

     convergence threshold    = 5.012E-03
     iter. #     1  RMS(g-h-1)= 7.505E-02  nbox=  0
     iter. #    11  RMS(g-h-1)= 1.487E-02  nbox= 10
     iter. #    21  RMS(g-h-1)= 6.858E-03  nbox= 10
     iter. #    28  RMS(g-h-1)= 4.478E-03  nbox= 10

     End of Laue-RISM calculation


     convergence has been achieved in    28 iterations


     solvent charge    0.01733, renormalised to    0.00000

     Total number of solvent (in expand-cell)
     EtOH           4.198813

     Total charge of solvent (in expand-cell)
     EtOH           0.017326 e
     Total          0.017326 e

     Chemical potential of solvation (in expand-cell)
     EtOH       GaussFluct   0.383840E+00 kcal/mol
     Total      GaussFluct   0.383840E+00 kcal/mol


     total cpu time spent up to now is       87.9 secs

     total energy              =      -8.76678882 Ry
     Harris-Foulkes estimate   =      -9.24325121 Ry
     estimated scf accuracy    <       5.82542780 Ry

     iteration #  4     ecut=    25.00 Ry     beta=0.40
     Davidson diagonalization with overlap
     ethr =  1.00E-02,  avg # of iterations =  1.0

     Laue-RISM Calculation

     convergence threshold    = 5.012E-03
     iter. #     1  RMS(g-h-1)= 7.717E-03  nbox=  0
     iter. #     4  RMS(g-h-1)= 4.339E-03  nbox=  3

     End of Laue-RISM calculation


     convergence has been achieved in     4 iterations


     solvent charge    0.02509, renormalised to    0.00000

     Total number of solvent (in expand-cell)
     EtOH           4.196701

     Total charge of solvent (in expand-cell)
     EtOH           0.025088 e
     Total          0.025088 e

     Chemical potential of solvation (in expand-cell)
     EtOH       GaussFluct   0.281346E+00 kcal/mol
     Total      GaussFluct   0.281346E+00 kcal/mol


     total cpu time spent up to now is       89.1 secs

     total energy              =      -8.97428351 Ry
     Harris-Foulkes estimate   =      -8.97123364 Ry
     estimated scf accuracy    <       0.08242168 Ry

     iteration #  5     ecut=    25.00 Ry     beta=0.40
     Davidson diagonalization with overlap
     ethr =  1.65E-03,  avg # of iterations =  1.0

     Laue-RISM Calculation

     convergence threshold    = 5.012E-03
     iter. #     1  RMS(g-h-1)= 6.813E-02  nbox=  0
     iter. #    11  RMS(g-h-1)= 4.996E-03  nbox= 10

     End of Laue-RISM calculation


     convergence has been achieved in    11 iterations


     solvent charge   -0.01910, renormalised to   -0.00000

     Total number of solvent (in expand-cell)
     EtOH           4.218560

     Total charge of solvent (in expand-cell)
     EtOH          -0.019103 e
     Total         -0.019103 e

     Chemical potential of solvation (in expand-cell)
     EtOH       GaussFluct   0.434595E+00 kcal/mol
     Total      GaussFluct   0.434595E+00 kcal/mol


     total cpu time spent up to now is       91.7 secs

     total energy              =      -8.95577384 Ry
     Harris-Foulkes estimate   =      -8.97708523 Ry
     estimated scf accuracy    <       0.10291211 Ry

     iteration #  6     ecut=    25.00 Ry     beta=0.40
     Davidson diagonalization with overlap
     ethr =  1.65E-03,  avg # of iterations =  1.0

     Laue-RISM Calculation

     convergence threshold    = 8.642E-04
     iter. #     1  RMS(g-h-1)= 3.968E-02  nbox=  0
     iter. #    11  RMS(g-h-1)= 3.038E-03  nbox= 10
     iter. #    21  RMS(g-h-1)= 1.140E-03  nbox= 10
     iter. #    25  RMS(g-h-1)= 8.401E-04  nbox= 10

     End of Laue-RISM calculation


     convergence has been achieved in    25 iterations


     solvent charge   -0.00180, renormalised to   -0.00000

     Total number of solvent (in expand-cell)
     EtOH           4.212495

     Total charge of solvent (in expand-cell)
     EtOH          -0.001800 e
     Total         -0.001800 e

     Chemical potential of solvation (in expand-cell)
     EtOH       GaussFluct   0.131850E+00 kcal/mol
     Total      GaussFluct   0.131850E+00 kcal/mol


     total cpu time spent up to now is       97.8 secs

     total energy              =      -8.95959994 Ry
     Harris-Foulkes estimate   =      -8.96165934 Ry
     estimated scf accuracy    <       0.01061388 Ry

     iteration #  7     ecut=    25.00 Ry     beta=0.40
     Davidson diagonalization with overlap
     c_bands:  1 eigenvalues not converged
     ethr =  2.12E-04,  avg # of iterations =  8.7

     Laue-RISM Calculation

     convergence threshold    = 5.012E-03
     iter. #     1  RMS(g-h-1)= 1.529E-02  nbox=  0
     iter. #     4  RMS(g-h-1)= 2.851E-03  nbox=  3

     End of Laue-RISM calculation


     convergence has been achieved in     4 iterations


     solvent charge    0.01010, renormalised to   -0.00000

     Total number of solvent (in expand-cell)
     EtOH           4.205840

     Total charge of solvent (in expand-cell)
     EtOH           0.010102 e
     Total          0.010102 e

     Chemical potential of solvation (in expand-cell)
     EtOH       GaussFluct   0.268809E+00 kcal/mol
     Total      GaussFluct   0.268809E+00 kcal/mol


     total cpu time spent up to now is       99.1 secs

     total energy              =      -8.97133353 Ry
     Harris-Foulkes estimate   =      -8.97287858 Ry
     estimated scf accuracy    <       0.04154881 Ry

     iteration #  8     ecut=    25.00 Ry     beta=0.40
     Davidson diagonalization with overlap
     ethr =  2.12E-04,  avg # of iterations =  4.3

     Laue-RISM Calculation

     convergence threshold    = 4.848E-03
     iter. #     1  RMS(g-h-1)= 1.729E-02  nbox=  0
     iter. #     4  RMS(g-h-1)= 3.921E-03  nbox=  3

     End of Laue-RISM calculation


     convergence has been achieved in     4 iterations


     solvent charge    0.01259, renormalised to   -0.00000

     Total number of solvent (in expand-cell)
     EtOH           4.201382

     Total charge of solvent (in expand-cell)
     EtOH           0.012587 e
     Total          0.012587 e

     Chemical potential of solvation (in expand-cell)
     EtOH       GaussFluct   0.353348E+00 kcal/mol
     Total      GaussFluct   0.353348E+00 kcal/mol


     total cpu time spent up to now is      100.4 secs

     total energy              =      -8.97030462 Ry
     Harris-Foulkes estimate   =      -8.97201783 Ry
     estimated scf accuracy    <       0.04005634 Ry

     iteration #  9     ecut=    25.00 Ry     beta=0.40
     Davidson diagonalization with overlap
     ethr =  2.12E-04,  avg # of iterations =  1.0

     Laue-RISM Calculation

     convergence threshold    = 1.250E-03
     iter. #     1  RMS(g-h-1)= 5.282E-03  nbox=  0
     iter. #    11  RMS(g-h-1)= 1.261E-03  nbox= 10
     iter. #    12  RMS(g-h-1)= 1.166E-03  nbox= 10

     End of Laue-RISM calculation


     convergence has been achieved in    12 iterations


     solvent charge    0.00474, renormalised to   -0.00000

     Total number of solvent (in expand-cell)
     EtOH           4.208783

     Total charge of solvent (in expand-cell)
     EtOH           0.004738 e
     Total          0.004738 e

     Chemical potential of solvation (in expand-cell)
     EtOH       GaussFluct   0.392196E+00 kcal/mol
     Total      GaussFluct   0.392196E+00 kcal/mol


     total cpu time spent up to now is      103.4 secs

     total energy              =      -8.97124002 Ry
     Harris-Foulkes estimate   =      -8.97135444 Ry
     estimated scf accuracy    <       0.01410460 Ry

     iteration # 10     ecut=    25.00 Ry     beta=0.40
     Davidson diagonalization with overlap
     ethr =  2.12E-04,  avg # of iterations =  1.0

     Laue-RISM Calculation

     convergence threshold    = 1.758E-03
     iter. #     1  RMS(g-h-1)= 1.359E-02  nbox=  0
     iter. #     5  RMS(g-h-1)= 1.739E-03  nbox=  4

     End of Laue-RISM calculation


     convergence has been achieved in     5 iterations


     solvent charge   -0.00411, renormalised to   -0.00000

     Total number of solvent (in expand-cell)
     EtOH           4.213922

     Total charge of solvent (in expand-cell)
     EtOH          -0.004112 e
     Total         -0.004112 e

     Chemical potential of solvation (in expand-cell)
     EtOH       GaussFluct   0.291002E+00 kcal/mol
     Total      GaussFluct   0.291002E+00 kcal/mol


     total cpu time spent up to now is      105.0 secs

     total energy              =      -8.97162323 Ry
     Harris-Foulkes estimate   =      -8.97141153 Ry
     estimated scf accuracy    <       0.01833915 Ry

     iteration # 11     ecut=    25.00 Ry     beta=0.40
     Davidson diagonalization with overlap
     ethr =  2.12E-04,  avg # of iterations =  1.0

     negative rho (up, down):  2.704E-08 0.000E+00

     Laue-RISM Calculation

     convergence threshold    = 2.818E-03
     iter. #     1  RMS(g-h-1)= 2.588E-02  nbox=  0
     iter. #     6  RMS(g-h-1)= 2.313E-03  nbox=  5

     End of Laue-RISM calculation


     convergence has been achieved in     6 iterations


     solvent charge   -0.00686, renormalised to    0.00000

     Total number of solvent (in expand-cell)
     EtOH           4.217570

     Total charge of solvent (in expand-cell)
     EtOH          -0.006861 e
     Total         -0.006861 e

     Chemical potential of solvation (in expand-cell)
     EtOH       GaussFluct   0.245389E+00 kcal/mol
     Total      GaussFluct   0.245389E+00 kcal/mol


     total cpu time spent up to now is      106.7 secs

     total energy              =      -8.97077242 Ry
     Harris-Foulkes estimate   =      -8.97215674 Ry
     estimated scf accuracy    <       0.02637554 Ry

     iteration # 12     ecut=    25.00 Ry     beta=0.40
     Davidson diagonalization with overlap
     ethr =  2.12E-04,  avg # of iterations =  1.0

     negative rho (up, down):  3.061E-05 0.000E+00

     Laue-RISM Calculation

     convergence threshold    = 1.708E-03
     iter. #     1  RMS(g-h-1)= 2.656E-02  nbox=  0
     iter. #    11  RMS(g-h-1)= 1.895E-03  nbox= 10
     iter. #    12  RMS(g-h-1)= 1.618E-03  nbox= 10

     End of Laue-RISM calculation


     convergence has been achieved in    12 iterations


     solvent charge    0.00096, renormalised to    0.00000

     Total number of solvent (in expand-cell)
     EtOH           4.219139

     Total charge of solvent (in expand-cell)
     EtOH           0.000956 e
     Total          0.000956 e

     Chemical potential of solvation (in expand-cell)
     EtOH       GaussFluct   0.135577E+00 kcal/mol
     Total      GaussFluct   0.135577E+00 kcal/mol


     total cpu time spent up to now is      109.5 secs

     total energy              =      -8.96967922 Ry
     Harris-Foulkes estimate   =      -8.97160061 Ry
     estimated scf accuracy    <       0.01793262 Ry

     iteration # 13     ecut=    25.00 Ry     beta=0.40
     Davidson diagonalization with overlap
     ethr =  2.12E-04,  avg # of iterations =  1.0

     negative rho (up, down):  1.301E-05 0.000E+00

     Laue-RISM Calculation

     convergence threshold    = 3.971E-04
     iter. #     1  RMS(g-h-1)= 8.983E-03  nbox=  0
     iter. #    11  RMS(g-h-1)= 5.835E-04  nbox= 10
     iter. #    17  RMS(g-h-1)= 3.935E-04  nbox= 10

     End of Laue-RISM calculation


     convergence has been achieved in    17 iterations


     solvent charge   -0.00025, renormalised to    0.00000

     Total number of solvent (in expand-cell)
     EtOH           4.216577

     Total charge of solvent (in expand-cell)
     EtOH          -0.000245 e
     Total         -0.000245 e

     Chemical potential of solvation (in expand-cell)
     EtOH       GaussFluct   0.833356E-01 kcal/mol
     Total      GaussFluct   0.833356E-01 kcal/mol


     total cpu time spent up to now is      113.5 secs

     total energy              =      -8.97041399 Ry
     Harris-Foulkes estimate   =      -8.97145577 Ry
     estimated scf accuracy    <       0.00583126 Ry

     iteration # 14     ecut=    25.00 Ry     beta=0.40
     Davidson diagonalization with overlap
     ethr =  1.17E-04,  avg # of iterations =  1.0

     negative rho (up, down):  5.259E-05 0.000E+00

     Laue-RISM Calculation

     convergence threshold    = 8.361E-04
     iter. #     1  RMS(g-h-1)= 5.762E-03  nbox=  0
     iter. #     5  RMS(g-h-1)= 7.930E-04  nbox=  4

     End of Laue-RISM calculation


     convergence has been achieved in     5 iterations


     solvent charge    0.00140, renormalised to    0.00000

     Total number of solvent (in expand-cell)
     EtOH           4.218014

     Total charge of solvent (in expand-cell)
     EtOH           0.001400 e
     Total          0.001400 e

     Chemical potential of solvation (in expand-cell)
     EtOH       GaussFluct   0.678257E-01 kcal/mol
     Total      GaussFluct   0.678257E-01 kcal/mol


     total cpu time spent up to now is      114.9 secs

     total energy              =      -8.97101886 Ry
     Harris-Foulkes estimate   =      -8.97150358 Ry
     estimated scf accuracy    <       0.01034671 Ry

     iteration # 15     ecut=    25.00 Ry     beta=0.40
     Davidson diagonalization with overlap
     ethr =  1.17E-04,  avg # of iterations =  1.0

     negative rho (up, down):  5.166E-07 0.000E+00

     Laue-RISM Calculation

     convergence threshold    = 3.994E-05
     iter. #     1  RMS(g-h-1)= 4.089E-03  nbox=  0
     iter. #    11  RMS(g-h-1)= 3.387E-04  nbox= 10
     iter. #    21  RMS(g-h-1)= 1.873E-04  nbox= 10
     iter. #    31  RMS(g-h-1)= 1.206E-04  nbox= 10
     iter. #    41  RMS(g-h-1)= 1.016E-04  nbox= 10
     iter. #    51  RMS(g-h-1)= 7.121E-05  nbox= 10
     iter. #    61  RMS(g-h-1)= 6.021E-05  nbox= 10
     iter. #    71  RMS(g-h-1)= 4.810E-05  nbox= 10
     iter. #    79  RMS(g-h-1)= 3.986E-05  nbox=  3

     End of Laue-RISM calculation


     convergence has been achieved in    79 iterations


     solvent charge   -0.00005, renormalised to    0.00000

     Total number of solvent (in expand-cell)
     EtOH           4.217704

     Total charge of solvent (in expand-cell)
     EtOH          -0.000049 e
     Total         -0.000049 e

     Chemical potential of solvation (in expand-cell)
     EtOH       GaussFluct   0.994536E-01 kcal/mol
     Total      GaussFluct   0.994536E-01 kcal/mol


     total cpu time spent up to now is      131.1 secs

     total energy              =      -8.97125970 Ry
     Harris-Foulkes estimate   =      -8.97128456 Ry
     estimated scf accuracy    <       0.00099447 Ry

     iteration # 16     ecut=    25.00 Ry     beta=0.40
     Davidson diagonalization with overlap
     ethr =  1.99E-05,  avg # of iterations =  4.3

     negative rho (up, down):  2.783E-07 0.000E+00

     Laue-RISM Calculation

     convergence threshold    = 2.437E-04
     iter. #     1  RMS(g-h-1)= 9.973E-03  nbox=  0
     iter. #    11  RMS(g-h-1)= 6.190E-04  nbox= 10
     iter. #    21  RMS(g-h-1)= 2.721E-04  nbox= 10
     iter. #    25  RMS(g-h-1)= 2.399E-04  nbox= 10

     End of Laue-RISM calculation


     convergence has been achieved in    25 iterations


     solvent charge    0.00159, renormalised to    0.00000

     Total number of solvent (in expand-cell)
     EtOH           4.219158

     Total charge of solvent (in expand-cell)
     EtOH           0.001587 e
     Total          0.001587 e

     Chemical potential of solvation (in expand-cell)
     EtOH       GaussFluct   0.337762E-01 kcal/mol
     Total      GaussFluct   0.337762E-01 kcal/mol


     total cpu time spent up to now is      136.8 secs

     total energy              =      -8.97114393 Ry
     Harris-Foulkes estimate   =      -8.97141118 Ry
     estimated scf accuracy    <       0.00400444 Ry

     iteration # 17     ecut=    25.00 Ry     beta=0.40
     Davidson diagonalization with overlap
     ethr =  1.99E-05,  avg # of iterations =  1.0

     Laue-RISM Calculation

     convergence threshold    = 1.000E-05
     iter. #     1  RMS(g-h-1)= 2.277E-03  nbox=  0
     iter. #    11  RMS(g-h-1)= 1.410E-04  nbox= 10
     iter. #    21  RMS(g-h-1)= 8.848E-05  nbox= 10
     iter. #    31  RMS(g-h-1)= 5.380E-05  nbox= 10
     iter. #    41  RMS(g-h-1)= 3.382E-05  nbox= 10
     iter. #    51  RMS(g-h-1)= 3.056E-05  nbox= 10
     iter. #    61  RMS(g-h-1)= 2.806E-05  nbox= 10
     iter. #    71  RMS(g-h-1)= 2.592E-05  nbox=  4
     iter. #    81  RMS(g-h-1)= 2.261E-05  nbox= 10
     iter. #    91  RMS(g-h-1)= 1.912E-05  nbox=  8
     iter. #   101  RMS(g-h-1)= 1.717E-05  nbox=  2
     iter. #   111  RMS(g-h-1)= 1.573E-05  nbox= 10
     iter. #   121  RMS(g-h-1)= 1.490E-05  nbox=  6
     iter. #   131  RMS(g-h-1)= 1.380E-05  nbox= 10
     iter. #   141  RMS(g-h-1)= 1.279E-05  nbox= 10
     iter. #   151  RMS(g-h-1)= 1.198E-05  nbox=  4
     iter. #   161  RMS(g-h-1)= 1.116E-05  nbox= 10
     iter. #   171  RMS(g-h-1)= 1.058E-05  nbox=  8
     iter. #   181  RMS(g-h-1)= 1.034E-05  nbox=  2
     iter. #   189  RMS(g-h-1)= 9.941E-06  nbox= 10

     End of Laue-RISM calculation


     convergence has been achieved in   189 iterations


     solvent charge   -0.00001, renormalised to    0.00000

     Total number of solvent (in expand-cell)
     EtOH           4.218719

     Total charge of solvent (in expand-cell)
     EtOH          -0.000007 e
     Total         -0.000007 e

     Chemical potential of solvation (in expand-cell)
     EtOH       GaussFluct   0.551227E-01 kcal/mol
     Total      GaussFluct   0.551227E-01 kcal/mol


     total cpu time spent up to now is      173.1 secs

     total energy              =      -8.97130750 Ry
     Harris-Foulkes estimate   =      -8.97132163 Ry
     estimated scf accuracy    <       0.00003925 Ry

     iteration # 18     ecut=    25.00 Ry     beta=0.40
     Davidson diagonalization with overlap
     ethr =  7.85E-07,  avg # of iterations =  9.3

     Laue-RISM Calculation

     convergence threshold    = 1.000E-05
     iter. #     1  RMS(g-h-1)= 1.867E-04  nbox=  0
     iter. #    11  RMS(g-h-1)= 1.525E-05  nbox= 10
     iter. #    21  RMS(g-h-1)= 1.315E-05  nbox= 10
     iter. #    31  RMS(g-h-1)= 1.045E-05  nbox= 10
     iter. #    37  RMS(g-h-1)= 9.997E-06  nbox= 10

     End of Laue-RISM calculation


     convergence has been achieved in    37 iterations


     solvent charge    0.00000, renormalised to    0.00000

     Total number of solvent (in expand-cell)
     EtOH           4.218707

     Total charge of solvent (in expand-cell)
     EtOH           0.000002 e
     Total          0.000002 e

     Chemical potential of solvation (in expand-cell)
     EtOH       GaussFluct   0.557807E-01 kcal/mol
     Total      GaussFluct   0.557807E-01 kcal/mol


     total cpu time spent up to now is      181.1 secs

     total energy              =      -8.97139194 Ry
     Harris-Foulkes estimate   =      -8.97139373 Ry
     estimated scf accuracy    <       0.00020212 Ry

     iteration # 19     ecut=    25.00 Ry     beta=0.40
     Davidson diagonalization with overlap
     ethr =  7.85E-07,  avg # of iterations =  1.0

     Laue-RISM Calculation

     convergence threshold    = 1.000E-05
     iter. #     1  RMS(g-h-1)= 1.359E-03  nbox=  0
     iter. #    11  RMS(g-h-1)= 1.546E-04  nbox= 10
     iter. #    21  RMS(g-h-1)= 6.476E-05  nbox= 10
     iter. #    31  RMS(g-h-1)= 2.906E-05  nbox= 10
     iter. #    41  RMS(g-h-1)= 1.715E-05  nbox= 10
     iter. #    51  RMS(g-h-1)= 1.218E-05  nbox= 10
     iter. #    61  RMS(g-h-1)= 1.042E-05  nbox= 10
     iter. #    70  RMS(g-h-1)= 9.976E-06  nbox=  3

     End of Laue-RISM calculation


     convergence has been achieved in    70 iterations


     solvent charge   -0.00001, renormalised to   -0.00000

     Total number of solvent (in expand-cell)
     EtOH           4.218618

     Total charge of solvent (in expand-cell)
     EtOH          -0.000011 e
     Total         -0.000011 e

     Chemical potential of solvation (in expand-cell)
     EtOH       GaussFluct   0.583309E-01 kcal/mol
     Total      GaussFluct   0.583309E-01 kcal/mol


     total cpu time spent up to now is      195.7 secs

     total energy              =      -8.97137850 Ry
     Harris-Foulkes estimate   =      -8.97139268 Ry
     estimated scf accuracy    <       0.00015859 Ry

     iteration # 20     ecut=    25.00 Ry     beta=0.40
     Davidson diagonalization with overlap
     ethr =  7.85E-07,  avg # of iterations =  1.0

     Laue-RISM Calculation

     convergence threshold    = 1.000E-05
     iter. #     1  RMS(g-h-1)= 1.179E-03  nbox=  0
     iter. #    11  RMS(g-h-1)= 8.086E-05  nbox= 10
     iter. #    21  RMS(g-h-1)= 4.761E-05  nbox= 10
     iter. #    31  RMS(g-h-1)= 2.761E-05  nbox= 10
     iter. #    41  RMS(g-h-1)= 1.589E-05  nbox= 10
     iter. #    49  RMS(g-h-1)= 9.876E-06  nbox= 10

     End of Laue-RISM calculation


     convergence has been achieved in    49 iterations


     solvent charge   -0.00001, renormalised to   -0.00000

     Total number of solvent (in expand-cell)
     EtOH           4.218499

     Total charge of solvent (in expand-cell)
     EtOH          -0.000007 e
     Total         -0.000007 e

     Chemical potential of solvation (in expand-cell)
     EtOH       GaussFluct   0.636167E-01 kcal/mol
     Total      GaussFluct   0.636167E-01 kcal/mol


     total cpu time spent up to now is      206.8 secs

     total energy              =      -8.97138352 Ry
     Harris-Foulkes estimate   =      -8.97138652 Ry
     estimated scf accuracy    <       0.00005653 Ry

     iteration # 21     ecut=    25.00 Ry     beta=0.40
     Davidson diagonalization with overlap
     ethr =  7.85E-07,  avg # of iterations =  1.0

     negative rho (up, down):  5.348E-07 0.000E+00

     Laue-RISM Calculation

     convergence threshold    = 1.000E-05
     iter. #     1  RMS(g-h-1)= 2.666E-03  nbox=  0
     iter. #    11  RMS(g-h-1)= 2.003E-04  nbox= 10
     iter. #    21  RMS(g-h-1)= 1.436E-04  nbox= 10
     iter. #    31  RMS(g-h-1)= 6.616E-05  nbox= 10
     iter. #    41  RMS(g-h-1)= 4.944E-05  nbox= 10
     iter. #    51  RMS(g-h-1)= 3.378E-05  nbox= 10
     iter. #    61  RMS(g-h-1)= 2.130E-05  nbox= 10
     iter. #    71  RMS(g-h-1)= 1.655E-05  nbox= 10
     iter. #    81  RMS(g-h-1)= 1.449E-05  nbox=  4
     iter. #    91  RMS(g-h-1)= 1.006E-05  nbox= 10
     iter. #    93  RMS(g-h-1)= 9.808E-06  nbox= 10

     End of Laue-RISM calculation


     convergence has been achieved in    93 iterations


     solvent charge    0.00001, renormalised to   -0.00000

     Total number of solvent (in expand-cell)
     EtOH           4.219181

     Total charge of solvent (in expand-cell)
     EtOH           0.000008 e
     Total          0.000008 e

     Chemical potential of solvation (in expand-cell)
     EtOH       GaussFluct   0.395591E-01 kcal/mol
     Total      GaussFluct   0.395591E-01 kcal/mol


     total cpu time spent up to now is      225.7 secs

     total energy              =      -8.97139808 Ry
     Harris-Foulkes estimate   =      -8.97138589 Ry
     estimated scf accuracy    <       0.00005262 Ry

     iteration # 22     ecut=    25.00 Ry     beta=0.40
     Davidson diagonalization with overlap
     ethr =  7.85E-07,  avg # of iterations =  1.0

     negative rho (up, down):  2.282E-08 0.000E+00

     Laue-RISM Calculation

     convergence threshold    = 1.000E-05
     iter. #     1  RMS(g-h-1)= 8.085E-04  nbox=  0
     iter. #    11  RMS(g-h-1)= 6.340E-05  nbox= 10
     iter. #    21  RMS(g-h-1)= 3.971E-05  nbox= 10
     iter. #    31  RMS(g-h-1)= 1.997E-05  nbox= 10
     iter. #    41  RMS(g-h-1)= 1.619E-05  nbox= 10
     iter. #    51  RMS(g-h-1)= 1.203E-05  nbox= 10
     iter. #    59  RMS(g-h-1)= 9.957E-06  nbox= 10

     End of Laue-RISM calculation


     convergence has been achieved in    59 iterations


     solvent charge   -0.00001, renormalised to   -0.00000

     Total number of solvent (in expand-cell)
     EtOH           4.218955

     Total charge of solvent (in expand-cell)
     EtOH          -0.000012 e
     Total         -0.000012 e

     Chemical potential of solvation (in expand-cell)
     EtOH       GaussFluct   0.472550E-01 kcal/mol
     Total      GaussFluct   0.472550E-01 kcal/mol


     total cpu time spent up to now is      237.5 secs

     total energy              =      -8.97139662 Ry
     Harris-Foulkes estimate   =      -8.97140382 Ry
     estimated scf accuracy    <       0.00029934 Ry

     iteration # 23     ecut=    25.00 Ry     beta=0.40
     Davidson diagonalization with overlap
     ethr =  7.85E-07,  avg # of iterations =  1.0

     negative rho (up, down):  3.342E-07 0.000E+00

     Laue-RISM Calculation

     convergence threshold    = 1.000E-05
     iter. #     1  RMS(g-h-1)= 6.202E-04  nbox=  0
     iter. #    11  RMS(g-h-1)= 4.002E-05  nbox= 10
     iter. #    21  RMS(g-h-1)= 2.062E-05  nbox= 10
     iter. #    31  RMS(g-h-1)= 1.236E-05  nbox= 10
     iter. #    41  RMS(g-h-1)= 1.045E-05  nbox= 10
     iter. #    42  RMS(g-h-1)= 9.936E-06  nbox= 10

     End of Laue-RISM calculation


     convergence has been achieved in    42 iterations


     solvent charge   -0.00001, renormalised to   -0.00000

     Total number of solvent (in expand-cell)
     EtOH           4.219138

     Total charge of solvent (in expand-cell)
     EtOH          -0.000014 e
     Total         -0.000014 e

     Chemical potential of solvation (in expand-cell)
     EtOH       GaussFluct   0.410007E-01 kcal/mol
     Total      GaussFluct   0.410007E-01 kcal/mol


     total cpu time spent up to now is      246.4 secs

     total energy              =      -8.97140037 Ry
     Harris-Foulkes estimate   =      -8.97139740 Ry
     estimated scf accuracy    <       0.00018424 Ry

     iteration # 24     ecut=    25.00 Ry     beta=0.40
     Davidson diagonalization with overlap
     ethr =  7.85E-07,  avg # of iterations =  1.0

     negative rho (up, down):  3.430E-07 0.000E+00

     Laue-RISM Calculation

     convergence threshold    = 1.000E-05
     iter. #     1  RMS(g-h-1)= 2.662E-04  nbox=  0
     iter. #    11  RMS(g-h-1)= 1.975E-05  nbox= 10
     iter. #    21  RMS(g-h-1)= 1.347E-05  nbox= 10
     iter. #    27  RMS(g-h-1)= 9.999E-06  nbox= 10

     End of Laue-RISM calculation


     convergence has been achieved in    27 iterations


     solvent charge    0.00002, renormalised to   -0.00000

     Total number of solvent (in expand-cell)
     EtOH           4.219118

     Total charge of solvent (in expand-cell)
     EtOH           0.000017 e
     Total          0.000017 e

     Chemical potential of solvation (in expand-cell)
     EtOH       GaussFluct   0.426112E-01 kcal/mol
     Total      GaussFluct   0.426112E-01 kcal/mol


     total cpu time spent up to now is      251.9 secs

     total energy              =      -8.97139910 Ry
     Harris-Foulkes estimate   =      -8.97140066 Ry
     estimated scf accuracy    <       0.00022587 Ry

     iteration # 25     ecut=    25.00 Ry     beta=0.40
     Davidson diagonalization with overlap
     ethr =  7.85E-07,  avg # of iterations =  1.0

     Laue-RISM Calculation

     convergence threshold    = 1.000E-05
     iter. #     1  RMS(g-h-1)= 1.726E-03  nbox=  0
     iter. #    11  RMS(g-h-1)= 1.142E-04  nbox= 10
     iter. #    21  RMS(g-h-1)= 7.201E-05  nbox= 10
     iter. #    31  RMS(g-h-1)= 3.186E-05  nbox= 10
     iter. #    41  RMS(g-h-1)= 2.594E-05  nbox= 10
     iter. #    51  RMS(g-h-1)= 1.746E-05  nbox=  5
     iter. #    61  RMS(g-h-1)= 9.977E-06  nbox= 10

     End of Laue-RISM calculation


     convergence has been achieved in    61 iterations


     solvent charge   -0.00003, renormalised to   -0.00000

     Total number of solvent (in expand-cell)
     EtOH           4.218654

     Total charge of solvent (in expand-cell)
     EtOH          -0.000030 e
     Total         -0.000030 e

     Chemical potential of solvation (in expand-cell)
     EtOH       GaussFluct   0.584012E-01 kcal/mol
     Total      GaussFluct   0.584012E-01 kcal/mol


     total cpu time spent up to now is      264.1 secs

     total energy              =      -8.97139009 Ry
     Harris-Foulkes estimate   =      -8.97139928 Ry
     estimated scf accuracy    <       0.00020556 Ry

     iteration # 26     ecut=    25.00 Ry     beta=0.40
     Davidson diagonalization with overlap
     ethr =  7.85E-07,  avg # of iterations =  1.0

     negative rho (up, down):  4.450E-07 0.000E+00

     Laue-RISM Calculation

     convergence threshold    = 1.000E-05
     iter. #     1  RMS(g-h-1)= 6.813E-03  nbox=  0
     iter. #    11  RMS(g-h-1)= 5.074E-04  nbox= 10
     iter. #    21  RMS(g-h-1)= 3.101E-04  nbox= 10
     iter. #    31  RMS(g-h-1)= 1.377E-04  nbox= 10
     iter. #    41  RMS(g-h-1)= 9.234E-05  nbox= 10
     iter. #    51  RMS(g-h-1)= 3.698E-05  nbox= 10
     iter. #    61  RMS(g-h-1)= 1.891E-05  nbox= 10
     iter. #    71  RMS(g-h-1)= 1.464E-05  nbox= 10
     iter. #    81  RMS(g-h-1)= 1.329E-05  nbox=  4
     iter. #    91  RMS(g-h-1)= 1.136E-05  nbox= 10
     iter. #   101  RMS(g-h-1)= 1.033E-05  nbox=  8
     iter. #   103  RMS(g-h-1)= 9.976E-06  nbox= 10

     End of Laue-RISM calculation


     convergence has been achieved in   103 iterations


     solvent charge   -0.00001, renormalised to    0.00000

     Total number of solvent (in expand-cell)
     EtOH           4.217840

     Total charge of solvent (in expand-cell)
     EtOH          -0.000009 e
     Total         -0.000009 e

     Chemical potential of solvation (in expand-cell)
     EtOH       GaussFluct   0.909295E-01 kcal/mol
     Total      GaussFluct   0.909295E-01 kcal/mol


     total cpu time spent up to now is      284.2 secs

     total energy              =      -8.97136044 Ry
     Harris-Foulkes estimate   =      -8.97139104 Ry
     estimated scf accuracy    <       0.00010732 Ry

     iteration # 27     ecut=    25.00 Ry     beta=0.40
     Davidson diagonalization with overlap
     ethr =  7.85E-07,  avg # of iterations =  1.0

     negative rho (up, down):  3.059E-06 0.000E+00

     Laue-RISM Calculation

     convergence threshold    = 1.000E-05
     iter. #     1  RMS(g-h-1)= 3.200E-03  nbox=  0
     iter. #    11  RMS(g-h-1)= 9.997E-05  nbox= 10
     iter. #    21  RMS(g-h-1)= 4.934E-05  nbox= 10
     iter. #    31  RMS(g-h-1)= 2.045E-05  nbox= 10
     iter. #    41  RMS(g-h-1)= 1.498E-05  nbox= 10
     iter. #    51  RMS(g-h-1)= 1.214E-05  nbox=  4
     iter. #    56  RMS(g-h-1)= 9.892E-06  nbox=  9

     End of Laue-RISM calculation


     convergence has been achieved in    56 iterations


     solvent charge    0.00001, renormalised to    0.00000

     Total number of solvent (in expand-cell)
     EtOH           4.218768

     Total charge of solvent (in expand-cell)
     EtOH           0.000012 e
     Total          0.000012 e

     Chemical potential of solvation (in expand-cell)
     EtOH       GaussFluct   0.604952E-01 kcal/mol
     Total      GaussFluct   0.604952E-01 kcal/mol


     total cpu time spent up to now is      295.7 secs

     total energy              =      -8.97138459 Ry
     Harris-Foulkes estimate   =      -8.97138079 Ry
     estimated scf accuracy    <       0.00026208 Ry

     iteration # 28     ecut=    25.00 Ry     beta=0.40
     Davidson diagonalization with overlap
     ethr =  7.85E-07,  avg # of iterations =  1.0

     negative rho (up, down):  2.813E-06 0.000E+00

     Laue-RISM Calculation

     convergence threshold    = 1.000E-05
     iter. #     1  RMS(g-h-1)= 3.916E-03  nbox=  0
     iter. #    11  RMS(g-h-1)= 2.356E-04  nbox= 10
     iter. #    21  RMS(g-h-1)= 1.203E-04  nbox= 10
     iter. #    31  RMS(g-h-1)= 6.134E-05  nbox= 10
     iter. #    41  RMS(g-h-1)= 4.949E-05  nbox= 10
     iter. #    51  RMS(g-h-1)= 3.442E-05  nbox= 10
     iter. #    61  RMS(g-h-1)= 2.314E-05  nbox= 10
     iter. #    71  RMS(g-h-1)= 1.534E-05  nbox= 10
     iter. #    81  RMS(g-h-1)= 1.246E-05  nbox= 10
     iter. #    91  RMS(g-h-1)= 9.689E-06  nbox=  5

     End of Laue-RISM calculation


     convergence has been achieved in    91 iterations


     solvent charge    0.00001, renormalised to   -0.00000

     Total number of solvent (in expand-cell)
     EtOH           4.219744

     Total charge of solvent (in expand-cell)
     EtOH           0.000008 e
     Total          0.000008 e

     Chemical potential of solvation (in expand-cell)
     EtOH       GaussFluct   0.249649E-01 kcal/mol
     Total      GaussFluct   0.249649E-01 kcal/mol


     total cpu time spent up to now is      314.9 secs

     total energy              =      -8.97138618 Ry
     Harris-Foulkes estimate   =      -8.97138780 Ry
     estimated scf accuracy    <       0.00006858 Ry

     iteration # 29     ecut=    25.00 Ry     beta=0.40
     Davidson diagonalization with overlap
     ethr =  7.85E-07,  avg # of iterations =  1.3

     negative rho (up, down):  1.242E-07 0.000E+00

     Laue-RISM Calculation

     convergence threshold    = 1.000E-05
     iter. #     1  RMS(g-h-1)= 4.398E-04  nbox=  0
     iter. #    11  RMS(g-h-1)= 2.601E-05  nbox= 10
     iter. #    21  RMS(g-h-1)= 1.899E-05  nbox= 10
     iter. #    31  RMS(g-h-1)= 1.199E-05  nbox= 10
     iter. #    41  RMS(g-h-1)= 1.015E-05  nbox= 10
     iter. #    43  RMS(g-h-1)= 9.939E-06  nbox= 10

     End of Laue-RISM calculation


     convergence has been achieved in    43 iterations


     solvent charge    0.00001, renormalised to   -0.00000

     Total number of solvent (in expand-cell)
     EtOH           4.219667

     Total charge of solvent (in expand-cell)
     EtOH           0.000012 e
     Total          0.000012 e

     Chemical potential of solvation (in expand-cell)
     EtOH       GaussFluct   0.273852E-01 kcal/mol
     Total      GaussFluct   0.273852E-01 kcal/mol


     total cpu time spent up to now is      324.4 secs

     total energy              =      -8.97139049 Ry
     Harris-Foulkes estimate   =      -8.97139073 Ry
     estimated scf accuracy    <       0.00000270 Ry

     iteration # 30     ecut=    25.00 Ry     beta=0.40
     Davidson diagonalization with overlap
     ethr =  5.40E-08,  avg # of iterations =  3.7

     negative rho (up, down):  3.098E-08 0.000E+00

     Laue-RISM Calculation

     convergence threshold    = 1.000E-05
     iter. #     1  RMS(g-h-1)= 1.601E-04  nbox=  0
     iter. #    11  RMS(g-h-1)= 1.094E-05  nbox= 10
     iter. #    14  RMS(g-h-1)= 9.988E-06  nbox= 10

     End of Laue-RISM calculation


     convergence has been achieved in    14 iterations


     solvent charge    0.00003, renormalised to   -0.00000

     Total number of solvent (in expand-cell)
     EtOH           4.219651

     Total charge of solvent (in expand-cell)
     EtOH           0.000032 e
     Total          0.000032 e

     Chemical potential of solvation (in expand-cell)
     EtOH       GaussFluct   0.282628E-01 kcal/mol
     Total      GaussFluct   0.282628E-01 kcal/mol


     total cpu time spent up to now is      327.9 secs

     total energy              =      -8.97139109 Ry
     Harris-Foulkes estimate   =      -8.97139122 Ry
     estimated scf accuracy    <       0.00000179 Ry

     iteration # 31     ecut=    25.00 Ry     beta=0.40
     Davidson diagonalization with overlap
     ethr =  3.57E-08,  avg # of iterations =  1.0

     Laue-RISM Calculation

     convergence threshold    = 1.000E-05
     iter. #     1  RMS(g-h-1)= 6.422E-04  nbox=  0
     iter. #    11  RMS(g-h-1)= 6.120E-05  nbox= 10
     iter. #    21  RMS(g-h-1)= 3.356E-05  nbox= 10
     iter. #    31  RMS(g-h-1)= 2.075E-05  nbox= 10
     iter. #    41  RMS(g-h-1)= 1.430E-05  nbox= 10
     iter. #    49  RMS(g-h-1)= 9.715E-06  nbox= 10

     End of Laue-RISM calculation


     convergence has been achieved in    49 iterations


     solvent charge    0.00003, renormalised to   -0.00000

     Total number of solvent (in expand-cell)
     EtOH           4.219837

     Total charge of solvent (in expand-cell)
     EtOH           0.000025 e
     Total          0.000025 e

     Chemical potential of solvation (in expand-cell)
     EtOH       GaussFluct   0.212778E-01 kcal/mol
     Total      GaussFluct   0.212778E-01 kcal/mol


     total cpu time spent up to now is      339.2 secs

     End of self-consistent calculation

          k = 0.0000 0.0000 0.0000 (  4513 PWs)   bands (ev):

    -6.0207  -5.2867  -4.1092  -2.7782  -1.5180  -0.3530  -0.0701

          k = 0.0000-0.5000 0.0000 (  4518 PWs)   bands (ev):

    -3.5271  -3.5123  -2.9039  -2.8941  -2.3668  -0.3938   0.0085

          k =-0.5000-0.5000 0.0000 (  4536 PWs)   bands (ev):

    -2.0073  -2.0073  -1.0938  -1.0937   0.5084   0.5091   0.8465

     the Fermi energy is    -2.8503 ev

!    total energy              =      -8.97139137 Ry
     Harris-Foulkes estimate   =      -8.97139120 Ry
     estimated scf accuracy    <       0.00000039 Ry

     The total energy is the sum of the following terms:

     one-electron contribution =      42.94843818 Ry
     hartree contribution      =     -21.01087442 Ry
     xc contribution           =      -8.34279390 Ry
     ewald contribution        =     -22.56020447 Ry
     solvation energy (RISM)   =       0.00006786 Ry
     smearing contrib. (-TS)   =      -0.00602462 Ry

     convergence has been achieved in  31 iterations

     Writing output data file Li-EtOH.save

     init_run     :      5.32s CPU      8.78s WALL (       1 calls)
     electrons    :    148.59s CPU    272.16s WALL (       1 calls)

     Called by init_run:
     wfcinit      :      0.04s CPU      0.04s WALL (       1 calls)
     potinit      :      5.06s CPU      8.47s WALL (       1 calls)

     Called by electrons:
     c_bands      :      1.43s CPU      1.53s WALL (      31 calls)
     sum_band     :      1.10s CPU      1.06s WALL (      31 calls)
     v_of_rho     :      1.07s CPU      1.12s WALL (      32 calls)
     newd         :      0.52s CPU      0.58s WALL (      32 calls)
     mix_rho      :      0.16s CPU      0.17s WALL (      31 calls)

     Called by c_bands:
     init_us_2    :      0.04s CPU      0.04s WALL (     189 calls)
     cegterg      :      1.37s CPU      1.45s WALL (      93 calls)

     Called by sum_band:
     sum_band:bec :      0.00s CPU      0.00s WALL (      93 calls)
     addusdens    :      0.63s CPU      0.57s WALL (      31 calls)

     Called by *egterg:
     h_psi        :      1.09s CPU      1.12s WALL (     272 calls)
     s_psi        :      0.07s CPU      0.06s WALL (     272 calls)
     g_psi        :      0.00s CPU      0.00s WALL (     176 calls)
     cdiaghg      :      0.05s CPU      0.06s WALL (     269 calls)

     Called by h_psi:
     h_psi:pot    :      1.08s CPU      1.11s WALL (     272 calls)
     h_psi:calbec :      0.09s CPU      0.10s WALL (     272 calls)
     vloc_psi     :      0.88s CPU      0.91s WALL (     272 calls)
     add_vuspsi   :      0.11s CPU      0.10s WALL (     272 calls)

     General routines
     calbec       :      0.12s CPU      0.13s WALL (     365 calls)
     fft          :      0.71s CPU      0.75s WALL (     605 calls)
     ffts         :      0.03s CPU      0.03s WALL (      63 calls)
     fftw         :      0.92s CPU      0.94s WALL (    3747 calls)
     fftc         :      0.03s CPU      0.03s WALL (      64 calls)
     interpolate  :      0.12s CPU      0.12s WALL (      63 calls)
     davcio       :      0.00s CPU      0.00s WALL (       3 calls)

     Parallel routines
     fft_scatter  :      2.67s CPU      2.75s WALL (   15227 calls)

     RISM routines
     1DRISM_pre   :      0.00s CPU      0.00s WALL (       1 calls)
     1DRISM_run   :     25.56s CPU     58.03s WALL (       1 calls)
     3DRISM_pre   :      1.02s CPU      0.89s WALL (       1 calls)
     3DRISM_run   :    148.06s CPU    274.96s WALL (      32 calls)
     3DRISM_vsol  :      0.05s CPU      0.06s WALL (      32 calls)

     PWSCF        :  2m59.78s CPU     5m39.36s WALL


   This run was terminated on:  18:56:32  15Apr2021            

=------------------------------------------------------------------------------=
   JOB DONE.
=------------------------------------------------------------------------------=
