
     Program PWSCF v.6.1 starts on  6Apr2017 at 18:50:41 

     This program is part of the open-source Quantum ESPRESSO suite
     for quantum simulation of materials; please cite
         "P. Giannozzi et al., J. Phys.:Condens. Matter 21 395502 (2009);
          URL http://www.quantum-espresso.org", 
     in publications or presentations arising from this work. More details at
     http://www.quantum-espresso.org/quote

     Parallel version (MPI & OpenMP), running on       6 processor cores
     Number of MPI processes:                 6
     Threads/MPI process:                     1
     R & G space division:  proc/nbgrp/npool/nimage =       6
     Waiting for input...
     Reading input from standard input

     Current dimensions of program PWSCF are:
     Max number of different atomic species (ntypx) = 10
     Max number of k-points (npk) =  40000
     Max angular momentum in pseudopotentials (lmaxx) =  3
     Message from routine iosys_1drism:
     default density from MOL file(Ethanol.oplsua.MOL) is used

     Subspace diagonalization in iterative solution of the eigenvalue problem:
     a serial algorithm will be used


     Molecule # 1 for EtOH read from file:
     /home/nisihara/QE/espresso/pseudo/Ethanol.oplsua.MOL
     Density:
         0.29122186E+01 cell^-1
         0.15283678E-02 bohr^-3
         0.17126692E+02 mol/L
         0.78900000E+00 g/cm^3
     Number of atoms:   4
     Atoms: 
       #  atom      X (angs)      Y (angs)      Z (angs)      Q (e)         E (kcal/mol)  S (angs)
       1  CH3/et   -0.15329132   -1.20449407    0.00000000    0.00000000    0.20700000    3.77500000
       2  CH2/et    0.52122770    0.14806752    0.00000000    0.26500000    0.11800000    3.90500000
       3  O/et     -0.49452384    1.13851228    0.00000000   -0.70000000    0.17000000    3.07000000
       4  H/et     -0.09079379    2.00792208    0.00000000    0.43500000    0.04600000    1.00000000


     1D-RISM info
     ------------
     closure equation        =           KH
     temperature             =     300.0000  kelvin
     coulomb smearing radius =       2.0000  bohr
     number of solvent sites =            4
     number of grids         =         1252
     maximum of R-space      =     249.8003  bohr
     maximum of G-space      =      15.7268  bohr^-1
     number of iterations    =        40000
     convergence threshold   =      1.0E-08
     Gaussian width of bonds =       0.4000  bohr
     size of MDIIS           =           20
     step of MDIIS           =       0.5000
     number of processes     =            6


     1D-RISM Calculation

     iter. #     1  RMS(g-h-1)= 9.113E-04  nbox=  0  T= 2400.00K
     iter. #   101  RMS(g-h-1)= 1.011E-06  nbox= 20  T= 1066.67K
     iter. #   201  RMS(g-h-1)= 1.192E-04  nbox=  5  T=  316.05K
     iter. #   301  RMS(g-h-1)= 8.030E-07  nbox= 20  T=  300.00K
     iter. #   401  RMS(g-h-1)= 3.580E-07  nbox= 20  T=  300.00K
     iter. #   501  RMS(g-h-1)= 2.231E-07  nbox= 20  T=  300.00K
     iter. #   601  RMS(g-h-1)= 1.811E-07  nbox= 20  T=  300.00K
     iter. #   701  RMS(g-h-1)= 1.165E-07  nbox= 20  T=  300.00K
     iter. #   801  RMS(g-h-1)= 8.773E-08  nbox= 20  T=  300.00K
     iter. #   901  RMS(g-h-1)= 7.444E-08  nbox= 20  T=  300.00K
     iter. #  1001  RMS(g-h-1)= 6.808E-08  nbox= 20  T=  300.00K
     iter. #  1101  RMS(g-h-1)= 6.218E-08  nbox= 20  T=  300.00K
     iter. #  1201  RMS(g-h-1)= 5.773E-08  nbox= 20  T=  300.00K
     iter. #  1301  RMS(g-h-1)= 5.110E-08  nbox= 20  T=  300.00K
     iter. #  1401  RMS(g-h-1)= 4.329E-08  nbox= 20  T=  300.00K
     iter. #  1501  RMS(g-h-1)= 3.444E-08  nbox= 20  T=  300.00K
     iter. #  1601  RMS(g-h-1)= 2.678E-08  nbox= 20  T=  300.00K
     iter. #  1701  RMS(g-h-1)= 2.166E-08  nbox= 20  T=  300.00K
     iter. #  1801  RMS(g-h-1)= 1.731E-08  nbox= 20  T=  300.00K
     iter. #  1901  RMS(g-h-1)= 1.511E-08  nbox= 20  T=  300.00K
     iter. #  2001  RMS(g-h-1)= 1.330E-08  nbox= 20  T=  300.00K
     iter. #  2101  RMS(g-h-1)= 1.224E-08  nbox= 20  T=  300.00K
     iter. #  2201  RMS(g-h-1)= 1.152E-08  nbox= 20  T=  300.00K
     iter. #  2301  RMS(g-h-1)= 1.112E-08  nbox= 20  T=  300.00K
     iter. #  2401  RMS(g-h-1)= 1.087E-08  nbox= 20  T=  300.00K
     iter. #  2501  RMS(g-h-1)= 1.065E-08  nbox= 20  T=  300.00K
     iter. #  2601  RMS(g-h-1)= 1.040E-08  nbox= 20  T=  300.00K
     iter. #  2701  RMS(g-h-1)= 1.024E-08  nbox= 20  T=  300.00K
     iter. #  2801  RMS(g-h-1)= 1.015E-08  nbox= 20  T=  300.00K
     iter. #  2893  RMS(g-h-1)= 1.000E-08  nbox= 20  T=  300.00K

     End of 1D-RISM calculation


     convergence has been achieved in  2893 iterations


     Chemical potential of solvation

     EtOH       EtOH       Closure     -0.130649E+01 kcal/mol
                           GaussFluct  -0.686005E+01 kcal/mol

                Total      Closure     -0.130649E+01 kcal/mol
                           GaussFluct  -0.686005E+01 kcal/mol


     Parallelization info
     --------------------
     sticks:   dense  smooth     PW     G-vecs:    dense   smooth      PW
     Min         124      56     17                18086     5377     980
     Max         125      58     19                18119     5386     989
     Sum         749     341    109               108669    32285    5903



     bravais-lattice index     =            6
     lattice parameter (alat)  =       6.4818  a.u.
     unit-cell volume          =    1905.4436 (a.u.)^3
     number of atoms/cell      =            5
     number of atomic types    =            1
     number of electrons       =         5.00
     number of Kohn-Sham states=            7
     kinetic-energy cutoff     =      25.0000  Ry
     charge density cutoff     =     225.0000  Ry
     convergence threshold     =      1.0E-06
     mixing beta               =       0.4000
     number of iterations used =            8  plain     mixing
     Exchange-correlation      =  SLA  PW   PBE  PBE ( 1  4  3  4 0 0)

     Effective Screening Medium Method
     =================================
     Boundary Conditions: Vacuum-Slab-Vacuum
     grid points for fit at edges     =        4 


     celldm(1)=   6.481761  celldm(2)=   0.000000  celldm(3)=   6.997085
     celldm(4)=   0.000000  celldm(5)=   0.000000  celldm(6)=   0.000000

     crystal axes: (cart. coord. in units of alat)
               a(1) = (   1.000000   0.000000   0.000000 )  
               a(2) = (   0.000000   1.000000   0.000000 )  
               a(3) = (   0.000000   0.000000   6.997085 )  

     reciprocal axes: (cart. coord. in units 2 pi/alat)
               b(1) = (  1.000000  0.000000  0.000000 )  
               b(2) = (  0.000000  1.000000  0.000000 )  
               b(3) = (  0.000000  0.000000  0.142917 )  


     PseudoPot. # 1 for Li read from file:
     /home/nisihara/QE/espresso/pseudo/Li.pbe-n-van.UPF
     MD5 check sum: 057edeeab9105e5446fd9e29ea3f9c2f
     Pseudo is Ultrasoft + core correction, Zval =  1.0
     Generated by new atomic code, or converted to UPF format
     Using radial grid of  751 points,  2 beta functions with: 
                l(1) =   1
                l(2) =   1
     Q(r) pseudized with  8 coefficients,  rinner =    1.000   1.000   1.000


     atomic species   valence    mass     pseudopotential
        Li             1.00     6.94100     Li( 1.00)

     16 Sym. Ops., with inversion, found



   Cartesian axes

     site n.     atom                  positions (alat units)
         1           Li  tau(   1) = (   0.0000000   0.0000000  -1.0000000  )
         2           Li  tau(   2) = (   0.5000000   0.5000000  -0.5000000  )
         3           Li  tau(   3) = (   0.0000000   0.0000000   0.0000000  )
         4           Li  tau(   4) = (   0.5000000   0.5000000   0.5000000  )
         5           Li  tau(   5) = (   0.0000000   0.0000000   1.0000000  )

     number of k points=     3  gaussian smearing, width (Ry)=  0.0100
                       cart. coord. in units 2pi/alat
        k(    1) = (   0.0000000   0.0000000   0.0000000), wk =   0.5000000
        k(    2) = (   0.0000000  -0.5000000   0.0000000), wk =   1.0000000
        k(    3) = (  -0.5000000  -0.5000000   0.0000000), wk =   0.5000000

     Dense  grid:   108669 G-vectors     FFT dimensions: (  32,  32, 225)

     Smooth grid:    32285 G-vectors     FFT dimensions: (  24,  24, 150)

     Estimated max dynamical RAM per process >      11.02MB

     Estimated total allocated dynamical RAM >      66.15MB

     Solute:
       # atom     E (kcal/mol)  S (angs)
       1  Li      0.02500000    2.18359276    UFF
       2  Li      0.02500000    2.18359276    UFF
       3  Li      0.02500000    2.18359276    UFF
       4  Li      0.02500000    2.18359276    UFF
       5  Li      0.02500000    2.18359276    UFF


     Laue-RISM info
     --------------
     closure equation        =           KH
     temperature             =     300.0000  kelvin
     coulomb smearing radius =       2.0000  bohr
     number of solvent sites =            4
     solvent sites           =   CH3/et  CH2/et    O/et    H/et
     number of iterations    =         2000
     convergence threshold   =      1.0E-04
     size of MDIIS           =           10
     step of MDIIS           =       0.8000
     solvent cutoff          =     144.0000  Ry
     Custom grid:    55813 G-vectors     FFT dimensions: (  25,  25, 180)

     Boundary Conditions        : Vacuum-Slab-Solvent
     unit-cell (in bohr)        : [ -22.676714  22.676714]
     expand-cell (in bohr)      : [ -22.676714  74.077264]
     solvent of right (in bohr) : [   3.275525  74.077264]
     buffer  of right (in bohr) : [   1.259817   3.275525]
     reference of potential     : right-hand side
     #grids to fit at edges of unit-cell =    4
     Laue grid:      489 Gxy-vectors     FFT dimensions: (  25,  25, 384)


     Initial potential from superposition of free atoms

     starting charge    4.97665, renormalised to    5.00000

     negative rho (up, down):  1.842E-05 0.000E+00

     Laue-RISM Calculation

     convergence threshold    = 1.000E-02
     iter. #     1  RMS(g-h-1)= 6.174E+00  nbox=  0
     iter. #    11  RMS(g-h-1)= 1.123E-01  nbox=  9
     iter. #    21  RMS(g-h-1)= 3.992E-02  nbox= 10
     iter. #    31  RMS(g-h-1)= 1.403E-02  nbox= 10
     iter. #    34  RMS(g-h-1)= 9.722E-03  nbox= 10

     End of Laue-RISM calculation


     convergence has been achieved in    34 iterations


     solvent charge   -0.00356, renormalised to   -0.00000

     Total charge of solvent (in expand-cell)
     EtOH        -0.003316 e
     Total       -0.003316 e

     Chemical potential of solvation (in expand-cell)
     EtOH       GaussFluct   0.221925E+00 kcal/mol
     Total      GaussFluct   0.221925E+00 kcal/mol

     Starting wfc are   20 randomized atomic wfcs

     total cpu time spent up to now is        6.1 secs

     per-process dynamical memory:    31.1 Mb

     Self-consistent Calculation

     iteration #  1     ecut=    25.00 Ry     beta=0.40
     Davidson diagonalization with overlap
     ethr =  1.00E-02,  avg # of iterations =  3.0

     Laue-RISM Calculation

     convergence threshold    = 1.000E-02
     iter. #     1  RMS(g-h-1)= 1.315E+00  nbox=  0
     iter. #    11  RMS(g-h-1)= 1.946E-01  nbox= 10
     iter. #    21  RMS(g-h-1)= 1.694E-01  nbox= 10
     iter. #    31  RMS(g-h-1)= 1.126E-01  nbox=  7
     iter. #    41  RMS(g-h-1)= 3.734E-02  nbox= 10
     iter. #    51  RMS(g-h-1)= 2.006E-02  nbox= 10
     iter. #    59  RMS(g-h-1)= 9.065E-03  nbox= 10

     End of Laue-RISM calculation


     convergence has been achieved in    59 iterations


     solvent charge    0.00384, renormalised to   -0.00000

     Total charge of solvent (in expand-cell)
     EtOH         0.003916 e
     Total        0.003916 e

     Chemical potential of solvation (in expand-cell)
     EtOH       GaussFluct  -0.138079E+01 kcal/mol
     Total      GaussFluct  -0.138079E+01 kcal/mol


     total cpu time spent up to now is        8.2 secs

     total energy              =      -8.72781257 Ry
     Harris-Foulkes estimate   =      -9.02480516 Ry
     estimated scf accuracy    <       0.60970802 Ry

     iteration #  2     ecut=    25.00 Ry     beta=0.40
     Davidson diagonalization with overlap
     ethr =  1.00E-02,  avg # of iterations =  1.0

     Laue-RISM Calculation

     convergence threshold    = 1.000E-02
     iter. #     1  RMS(g-h-1)= 7.192E-01  nbox=  0
     iter. #    11  RMS(g-h-1)= 8.770E-02  nbox= 10
     iter. #    21  RMS(g-h-1)= 3.131E-02  nbox= 10
     iter. #    31  RMS(g-h-1)= 1.017E-02  nbox= 10
     iter. #    32  RMS(g-h-1)= 9.795E-03  nbox= 10

     End of Laue-RISM calculation


     convergence has been achieved in    32 iterations


     solvent charge    0.00570, renormalised to   -0.00000

     Total charge of solvent (in expand-cell)
     EtOH         0.005703 e
     Total        0.005703 e

     Chemical potential of solvation (in expand-cell)
     EtOH       GaussFluct   0.610661E+00 kcal/mol
     Total      GaussFluct   0.610661E+00 kcal/mol


     total cpu time spent up to now is        9.7 secs

     total energy              =      -8.82152211 Ry
     Harris-Foulkes estimate   =      -9.19626399 Ry
     estimated scf accuracy    <       2.08560249 Ry

     iteration #  3     ecut=    25.00 Ry     beta=0.40
     Davidson diagonalization with overlap
     ethr =  1.00E-02,  avg # of iterations =  1.0

     Laue-RISM Calculation

     convergence threshold    = 1.000E-02
     iter. #     1  RMS(g-h-1)= 2.065E-01  nbox=  0
     iter. #    11  RMS(g-h-1)= 1.297E-02  nbox= 10
     iter. #    15  RMS(g-h-1)= 9.980E-03  nbox= 10

     End of Laue-RISM calculation


     convergence has been achieved in    15 iterations


     solvent charge    0.00839, renormalised to   -0.00000

     Total charge of solvent (in expand-cell)
     EtOH         0.008280 e
     Total        0.008280 e

     Chemical potential of solvation (in expand-cell)
     EtOH       GaussFluct   0.449366E+00 kcal/mol
     Total      GaussFluct   0.449366E+00 kcal/mol


     total cpu time spent up to now is       10.5 secs

     total energy              =      -8.96893623 Ry
     Harris-Foulkes estimate   =      -8.96173515 Ry
     estimated scf accuracy    <       0.03607771 Ry

     iteration #  4     ecut=    25.00 Ry     beta=0.40
     Davidson diagonalization with overlap
     ethr =  7.22E-04,  avg # of iterations =  2.7

     Laue-RISM Calculation

     convergence threshold    = 1.000E-02
     iter. #     1  RMS(g-h-1)= 6.546E-01  nbox=  0
     iter. #    11  RMS(g-h-1)= 2.821E-02  nbox= 10
     iter. #    21  RMS(g-h-1)= 9.731E-03  nbox= 10

     End of Laue-RISM calculation


     convergence has been achieved in    21 iterations


     solvent charge   -0.00439, renormalised to   -0.00000

     Total charge of solvent (in expand-cell)
     EtOH        -0.004281 e
     Total       -0.004281 e

     Chemical potential of solvation (in expand-cell)
     EtOH       GaussFluct   0.518763E+00 kcal/mol
     Total      GaussFluct   0.518763E+00 kcal/mol


     total cpu time spent up to now is       11.6 secs

     total energy              =      -8.96118170 Ry
     Harris-Foulkes estimate   =      -8.98230921 Ry
     estimated scf accuracy    <       0.07430283 Ry

     iteration #  5     ecut=    25.00 Ry     beta=0.40
     Davidson diagonalization with overlap
     ethr =  7.22E-04,  avg # of iterations =  1.0

     Laue-RISM Calculation

     convergence threshold    = 1.000E-02
     iter. #     1  RMS(g-h-1)= 1.138E-01  nbox=  0
     iter. #    10  RMS(g-h-1)= 6.519E-03  nbox=  9

     End of Laue-RISM calculation


     convergence has been achieved in    10 iterations


     solvent charge   -0.00002, renormalised to   -0.00000

     Total charge of solvent (in expand-cell)
     EtOH        -0.000012 e
     Total       -0.000012 e

     Chemical potential of solvation (in expand-cell)
     EtOH       GaussFluct   0.600346E+00 kcal/mol
     Total      GaussFluct   0.600346E+00 kcal/mol


     total cpu time spent up to now is       12.2 secs

     total energy              =      -8.96234042 Ry
     Harris-Foulkes estimate   =      -8.97131567 Ry
     estimated scf accuracy    <       0.09079939 Ry

     iteration #  6     ecut=    25.00 Ry     beta=0.40
     Davidson diagonalization with overlap
     ethr =  7.22E-04,  avg # of iterations =  1.0

     Laue-RISM Calculation

     convergence threshold    = 1.868E-03
     iter. #     1  RMS(g-h-1)= 8.532E-02  nbox=  0
     iter. #    11  RMS(g-h-1)= 5.169E-03  nbox= 10
     iter. #    21  RMS(g-h-1)= 1.615E-03  nbox= 10

     End of Laue-RISM calculation


     convergence has been achieved in    21 iterations


     solvent charge    0.00072, renormalised to   -0.00000

     Total charge of solvent (in expand-cell)
     EtOH         0.000824 e
     Total        0.000824 e

     Chemical potential of solvation (in expand-cell)
     EtOH       GaussFluct   0.535457E+00 kcal/mol
     Total      GaussFluct   0.535457E+00 kcal/mol


     total cpu time spent up to now is       13.4 secs

     total energy              =      -8.96617341 Ry
     Harris-Foulkes estimate   =      -8.96625380 Ry
     estimated scf accuracy    <       0.00898691 Ry

     iteration #  7     ecut=    25.00 Ry     beta=0.40
     Davidson diagonalization with overlap
     c_bands:  1 eigenvalues not converged
     ethr =  1.80E-04,  avg # of iterations =  8.3

     Laue-RISM Calculation

     convergence threshold    = 6.011E-03
     iter. #     1  RMS(g-h-1)= 4.535E-02  nbox=  0
     iter. #     7  RMS(g-h-1)= 4.891E-03  nbox=  6

     End of Laue-RISM calculation


     convergence has been achieved in     7 iterations


     solvent charge   -0.00057, renormalised to   -0.00000

     Total charge of solvent (in expand-cell)
     EtOH        -0.000462 e
     Total       -0.000462 e

     Chemical potential of solvation (in expand-cell)
     EtOH       GaussFluct   0.493215E+00 kcal/mol
     Total      GaussFluct   0.493215E+00 kcal/mol


     total cpu time spent up to now is       13.9 secs

     total energy              =      -8.97305659 Ry
     Harris-Foulkes estimate   =      -8.97302434 Ry
     estimated scf accuracy    <       0.02158872 Ry

     iteration #  8     ecut=    25.00 Ry     beta=0.40
     Davidson diagonalization with overlap
     ethr =  1.80E-04,  avg # of iterations =  2.7

     Laue-RISM Calculation

     convergence threshold    = 6.685E-03
     iter. #     1  RMS(g-h-1)= 1.672E-01  nbox=  0
     iter. #     8  RMS(g-h-1)= 6.277E-03  nbox=  6

     End of Laue-RISM calculation


     convergence has been achieved in     8 iterations


     solvent charge    0.00030, renormalised to   -0.00000

     Total charge of solvent (in expand-cell)
     EtOH         0.000289 e
     Total        0.000289 e

     Chemical potential of solvation (in expand-cell)
     EtOH       GaussFluct   0.589593E+00 kcal/mol
     Total      GaussFluct   0.589593E+00 kcal/mol


     total cpu time spent up to now is       14.4 secs

     total energy              =      -8.97233970 Ry
     Harris-Foulkes estimate   =      -8.97382103 Ry
     estimated scf accuracy    <       0.02337790 Ry

     iteration #  9     ecut=    25.00 Ry     beta=0.40
     Davidson diagonalization with overlap
     ethr =  1.80E-04,  avg # of iterations =  1.0

     negative rho (up, down):  3.805E-05 0.000E+00

     Laue-RISM Calculation

     convergence threshold    = 3.314E-04
     iter. #     1  RMS(g-h-1)= 1.236E-01  nbox=  0
     iter. #    11  RMS(g-h-1)= 4.741E-03  nbox=  9
     iter. #    21  RMS(g-h-1)= 1.617E-03  nbox= 10
     iter. #    31  RMS(g-h-1)= 6.695E-04  nbox= 10
     iter. #    41  RMS(g-h-1)= 4.119E-04  nbox= 10
     iter. #    51  RMS(g-h-1)= 3.250E-04  nbox= 10

     End of Laue-RISM calculation


     convergence has been achieved in    51 iterations


     solvent charge    0.00056, renormalised to   -0.00000

     Total charge of solvent (in expand-cell)
     EtOH         0.000535 e
     Total        0.000535 e

     Chemical potential of solvation (in expand-cell)
     EtOH       GaussFluct   0.521852E+00 kcal/mol
     Total      GaussFluct   0.521852E+00 kcal/mol


     total cpu time spent up to now is       16.2 secs

     total energy              =      -8.97079654 Ry
     Harris-Foulkes estimate   =      -8.97106910 Ry
     estimated scf accuracy    <       0.00245629 Ry

     iteration # 10     ecut=    25.00 Ry     beta=0.40
     Davidson diagonalization with overlap
     ethr =  4.91E-05,  avg # of iterations =  1.0

     negative rho (up, down):  2.939E-05 0.000E+00

     Laue-RISM Calculation

     convergence threshold    = 1.000E-04
     iter. #     1  RMS(g-h-1)= 3.465E-02  nbox=  0
     iter. #    11  RMS(g-h-1)= 1.156E-03  nbox=  9
     iter. #    21  RMS(g-h-1)= 4.410E-04  nbox= 10
     iter. #    31  RMS(g-h-1)= 2.852E-04  nbox= 10
     iter. #    41  RMS(g-h-1)= 2.274E-04  nbox= 10
     iter. #    51  RMS(g-h-1)= 1.924E-04  nbox=  9
     iter. #    61  RMS(g-h-1)= 1.482E-04  nbox= 10
     iter. #    71  RMS(g-h-1)= 1.166E-04  nbox=  2
     iter. #    81  RMS(g-h-1)= 1.031E-04  nbox= 10
     iter. #    85  RMS(g-h-1)= 9.979E-05  nbox= 10

     End of Laue-RISM calculation


     convergence has been achieved in    85 iterations


     solvent charge    0.00029, renormalised to   -0.00000

     Total charge of solvent (in expand-cell)
     EtOH         0.000425 e
     Total        0.000425 e

     Chemical potential of solvation (in expand-cell)
     EtOH       GaussFluct   0.495155E+00 kcal/mol
     Total      GaussFluct   0.495155E+00 kcal/mol


     total cpu time spent up to now is       19.0 secs

     total energy              =      -8.97065982 Ry
     Harris-Foulkes estimate   =      -8.97075212 Ry
     estimated scf accuracy    <       0.00040856 Ry

     iteration # 11     ecut=    25.00 Ry     beta=0.40
     Davidson diagonalization with overlap
     ethr =  8.17E-06,  avg # of iterations =  6.7

     negative rho (up, down):  2.658E-05 0.000E+00

     Laue-RISM Calculation

     convergence threshold    = 1.441E-04
     iter. #     1  RMS(g-h-1)= 3.963E-02  nbox=  0
     iter. #    11  RMS(g-h-1)= 1.329E-03  nbox=  9
     iter. #    21  RMS(g-h-1)= 4.959E-04  nbox= 10
     iter. #    31  RMS(g-h-1)= 1.769E-04  nbox= 10
     iter. #    35  RMS(g-h-1)= 1.333E-04  nbox= 10

     End of Laue-RISM calculation


     convergence has been achieved in    35 iterations


     solvent charge    0.00065, renormalised to   -0.00000

     Total charge of solvent (in expand-cell)
     EtOH         0.000622 e
     Total        0.000622 e

     Chemical potential of solvation (in expand-cell)
     EtOH       GaussFluct   0.512291E+00 kcal/mol
     Total      GaussFluct   0.512291E+00 kcal/mol


     total cpu time spent up to now is       20.4 secs

     total energy              =      -8.97097952 Ry
     Harris-Foulkes estimate   =      -8.97089904 Ry
     estimated scf accuracy    <       0.00131539 Ry

     iteration # 12     ecut=    25.00 Ry     beta=0.40
     Davidson diagonalization with overlap
     ethr =  8.17E-06,  avg # of iterations =  1.0

     negative rho (up, down):  7.520E-06 0.000E+00

     Laue-RISM Calculation

     convergence threshold    = 1.435E-04
     iter. #     1  RMS(g-h-1)= 5.408E-02  nbox=  0
     iter. #    11  RMS(g-h-1)= 1.486E-03  nbox= 10
     iter. #    21  RMS(g-h-1)= 5.419E-04  nbox= 10
     iter. #    31  RMS(g-h-1)= 1.465E-04  nbox= 10
     iter. #    32  RMS(g-h-1)= 1.390E-04  nbox= 10

     End of Laue-RISM calculation


     convergence has been achieved in    32 iterations


     solvent charge    0.00034, renormalised to   -0.00000

     Total charge of solvent (in expand-cell)
     EtOH         0.000454 e
     Total        0.000454 e

     Chemical potential of solvation (in expand-cell)
     EtOH       GaussFluct   0.482368E+00 kcal/mol
     Total      GaussFluct   0.482368E+00 kcal/mol


     total cpu time spent up to now is       21.6 secs

     total energy              =      -8.97099249 Ry
     Harris-Foulkes estimate   =      -8.97125771 Ry
     estimated scf accuracy    <       0.00131111 Ry

     iteration # 13     ecut=    25.00 Ry     beta=0.40
     Davidson diagonalization with overlap
     ethr =  8.17E-06,  avg # of iterations =  1.0

     Laue-RISM Calculation

     convergence threshold    = 1.000E-04
     iter. #     1  RMS(g-h-1)= 1.719E-02  nbox=  0
     iter. #    11  RMS(g-h-1)= 7.698E-04  nbox= 10
     iter. #    21  RMS(g-h-1)= 3.089E-04  nbox= 10
     iter. #    31  RMS(g-h-1)= 1.429E-04  nbox= 10
     iter. #    36  RMS(g-h-1)= 9.848E-05  nbox= 10

     End of Laue-RISM calculation


     convergence has been achieved in    36 iterations


     solvent charge    0.00027, renormalised to   -0.00000

     Total charge of solvent (in expand-cell)
     EtOH         0.000399 e
     Total        0.000399 e

     Chemical potential of solvation (in expand-cell)
     EtOH       GaussFluct   0.490713E+00 kcal/mol
     Total      GaussFluct   0.490713E+00 kcal/mol


     total cpu time spent up to now is       23.0 secs

     total energy              =      -8.97083365 Ry
     Harris-Foulkes estimate   =      -8.97085039 Ry
     estimated scf accuracy    <       0.00061356 Ry

     iteration # 14     ecut=    25.00 Ry     beta=0.40
     Davidson diagonalization with overlap
     ethr =  8.17E-06,  avg # of iterations =  1.0

     Laue-RISM Calculation

     convergence threshold    = 1.000E-04
     iter. #     1  RMS(g-h-1)= 1.750E-02  nbox=  0
     iter. #    11  RMS(g-h-1)= 6.729E-04  nbox= 10
     iter. #    21  RMS(g-h-1)= 2.266E-04  nbox= 10
     iter. #    31  RMS(g-h-1)= 1.103E-04  nbox= 10
     iter. #    34  RMS(g-h-1)= 9.869E-05  nbox= 10

     End of Laue-RISM calculation


     convergence has been achieved in    34 iterations


     solvent charge    0.00022, renormalised to   -0.00000

     Total charge of solvent (in expand-cell)
     EtOH         0.000327 e
     Total        0.000327 e

     Chemical potential of solvation (in expand-cell)
     EtOH       GaussFluct   0.476166E+00 kcal/mol
     Total      GaussFluct   0.476166E+00 kcal/mol


     total cpu time spent up to now is       24.4 secs

     total energy              =      -8.97074211 Ry
     Harris-Foulkes estimate   =      -8.97084030 Ry
     estimated scf accuracy    <       0.00044193 Ry

     iteration # 15     ecut=    25.00 Ry     beta=0.40
     Davidson diagonalization with overlap
     ethr =  8.17E-06,  avg # of iterations =  1.0

     Laue-RISM Calculation

     convergence threshold    = 1.000E-04
     iter. #     1  RMS(g-h-1)= 5.727E-03  nbox=  0
     iter. #    11  RMS(g-h-1)= 1.824E-04  nbox= 10
     iter. #    21  RMS(g-h-1)= 9.615E-05  nbox= 10

     End of Laue-RISM calculation


     convergence has been achieved in    21 iterations


     solvent charge    0.00023, renormalised to   -0.00000

     Total charge of solvent (in expand-cell)
     EtOH         0.000324 e
     Total        0.000324 e

     Chemical potential of solvation (in expand-cell)
     EtOH       GaussFluct   0.468418E+00 kcal/mol
     Total      GaussFluct   0.468418E+00 kcal/mol


     total cpu time spent up to now is       25.4 secs

     total energy              =      -8.97075793 Ry
     Harris-Foulkes estimate   =      -8.97078202 Ry
     estimated scf accuracy    <       0.00002636 Ry

     iteration # 16     ecut=    25.00 Ry     beta=0.40
     Davidson diagonalization with overlap
     ethr =  5.27E-07,  avg # of iterations =  4.0

     Laue-RISM Calculation

     convergence threshold    = 1.000E-04
     iter. #     1  RMS(g-h-1)= 2.554E-03  nbox=  0
     iter. #    11  RMS(g-h-1)= 9.642E-05  nbox=  9

     End of Laue-RISM calculation


     convergence has been achieved in    11 iterations


     solvent charge    0.00023, renormalised to   -0.00000

     Total charge of solvent (in expand-cell)
     EtOH         0.000334 e
     Total        0.000334 e

     Chemical potential of solvation (in expand-cell)
     EtOH       GaussFluct   0.472635E+00 kcal/mol
     Total      GaussFluct   0.472635E+00 kcal/mol


     total cpu time spent up to now is       26.0 secs

     total energy              =      -8.97077243 Ry
     Harris-Foulkes estimate   =      -8.97076079 Ry
     estimated scf accuracy    <       0.00000365 Ry

     iteration # 17     ecut=    25.00 Ry     beta=0.40
     Davidson diagonalization with overlap
     ethr =  7.31E-08,  avg # of iterations =  2.7

     Laue-RISM Calculation

     convergence threshold    = 1.000E-04
     iter. #     1  RMS(g-h-1)= 3.234E-03  nbox=  0
     iter. #    11  RMS(g-h-1)= 1.525E-04  nbox= 10
     iter. #    19  RMS(g-h-1)= 9.738E-05  nbox= 10

     End of Laue-RISM calculation


     convergence has been achieved in    19 iterations


     solvent charge    0.00031, renormalised to    0.00000

     Total charge of solvent (in expand-cell)
     EtOH         0.000412 e
     Total        0.000412 e

     Chemical potential of solvation (in expand-cell)
     EtOH       GaussFluct   0.475339E+00 kcal/mol
     Total      GaussFluct   0.475339E+00 kcal/mol


     total cpu time spent up to now is       27.1 secs

     total energy              =      -8.97077489 Ry
     Harris-Foulkes estimate   =      -8.97076690 Ry
     estimated scf accuracy    <       0.00000416 Ry

     iteration # 18     ecut=    25.00 Ry     beta=0.40
     Davidson diagonalization with overlap
     ethr =  7.31E-08,  avg # of iterations =  1.0

     Laue-RISM Calculation

     convergence threshold    = 1.000E-04
     iter. #     1  RMS(g-h-1)= 5.325E-03  nbox=  0
     iter. #    11  RMS(g-h-1)= 1.567E-04  nbox= 10
     iter. #    17  RMS(g-h-1)= 9.728E-05  nbox= 10

     End of Laue-RISM calculation


     convergence has been achieved in    17 iterations


     solvent charge    0.00027, renormalised to   -0.00000

     Total charge of solvent (in expand-cell)
     EtOH         0.000370 e
     Total        0.000370 e

     Chemical potential of solvation (in expand-cell)
     EtOH       GaussFluct   0.475058E+00 kcal/mol
     Total      GaussFluct   0.475058E+00 kcal/mol


     total cpu time spent up to now is       28.0 secs

     total energy              =      -8.97076429 Ry
     Harris-Foulkes estimate   =      -8.97076639 Ry
     estimated scf accuracy    <       0.00001965 Ry

     iteration # 19     ecut=    25.00 Ry     beta=0.40
     Davidson diagonalization with overlap
     ethr =  7.31E-08,  avg # of iterations =  1.0

     negative rho (up, down):  1.926E-08 0.000E+00

     Laue-RISM Calculation

     convergence threshold    = 1.000E-04
     iter. #     1  RMS(g-h-1)= 2.384E-02  nbox=  0
     iter. #    11  RMS(g-h-1)= 3.699E-04  nbox=  9
     iter. #    21  RMS(g-h-1)= 1.651E-04  nbox= 10
     iter. #    31  RMS(g-h-1)= 1.059E-04  nbox= 10
     iter. #    33  RMS(g-h-1)= 9.999E-05  nbox= 10

     End of Laue-RISM calculation


     convergence has been achieved in    33 iterations


     solvent charge    0.00031, renormalised to    0.00000

     Total charge of solvent (in expand-cell)
     EtOH         0.000366 e
     Total        0.000366 e

     Chemical potential of solvation (in expand-cell)
     EtOH       GaussFluct   0.432581E+00 kcal/mol
     Total      GaussFluct   0.432581E+00 kcal/mol


     total cpu time spent up to now is       29.5 secs

     total energy              =      -8.97078629 Ry
     Harris-Foulkes estimate   =      -8.97091302 Ry
     estimated scf accuracy    <       0.00000646 Ry

     iteration # 20     ecut=    25.00 Ry     beta=0.40
     Davidson diagonalization with overlap
     ethr =  7.31E-08,  avg # of iterations =  3.7

     Laue-RISM Calculation

     convergence threshold    = 1.000E-04
     iter. #     1  RMS(g-h-1)= 6.801E-03  nbox=  0
     iter. #    11  RMS(g-h-1)= 1.728E-04  nbox= 10
     iter. #    15  RMS(g-h-1)= 9.981E-05  nbox= 10

     End of Laue-RISM calculation


     convergence has been achieved in    15 iterations


     solvent charge    0.00028, renormalised to    0.00000

     Total charge of solvent (in expand-cell)
     EtOH         0.000339 e
     Total        0.000339 e

     Chemical potential of solvation (in expand-cell)
     EtOH       GaussFluct   0.437477E+00 kcal/mol
     Total      GaussFluct   0.437477E+00 kcal/mol


     total cpu time spent up to now is       30.3 secs

     total energy              =      -8.97078406 Ry
     Harris-Foulkes estimate   =      -8.97077029 Ry
     estimated scf accuracy    <       0.00001743 Ry

     iteration # 21     ecut=    25.00 Ry     beta=0.40
     Davidson diagonalization with overlap
     ethr =  7.31E-08,  avg # of iterations =  1.0

     Laue-RISM Calculation

     convergence threshold    = 1.000E-04
     iter. #     1  RMS(g-h-1)= 3.648E-03  nbox=  0
     iter. #    11  RMS(g-h-1)= 1.183E-04  nbox= 10
     iter. #    14  RMS(g-h-1)= 9.898E-05  nbox= 10

     End of Laue-RISM calculation


     convergence has been achieved in    14 iterations


     solvent charge    0.00034, renormalised to    0.00000

     Total charge of solvent (in expand-cell)
     EtOH         0.000400 e
     Total        0.000400 e

     Chemical potential of solvation (in expand-cell)
     EtOH       GaussFluct   0.442146E+00 kcal/mol
     Total      GaussFluct   0.442146E+00 kcal/mol


     total cpu time spent up to now is       31.0 secs

     total energy              =      -8.97078796 Ry
     Harris-Foulkes estimate   =      -8.97077364 Ry
     estimated scf accuracy    <       0.00000168 Ry

     iteration # 22     ecut=    25.00 Ry     beta=0.40
     Davidson diagonalization with overlap
     ethr =  3.36E-08,  avg # of iterations =  1.7

     Laue-RISM Calculation

     convergence threshold    = 1.000E-04
     iter. #     1  RMS(g-h-1)= 4.729E-03  nbox=  0
     iter. #    11  RMS(g-h-1)= 2.096E-04  nbox= 10
     iter. #    21  RMS(g-h-1)= 9.961E-05  nbox= 10

     End of Laue-RISM calculation


     convergence has been achieved in    21 iterations


     solvent charge    0.00026, renormalised to    0.00000

     Total charge of solvent (in expand-cell)
     EtOH         0.000318 e
     Total        0.000318 e

     Chemical potential of solvation (in expand-cell)
     EtOH       GaussFluct   0.445108E+00 kcal/mol
     Total      GaussFluct   0.445108E+00 kcal/mol


     total cpu time spent up to now is       32.0 secs

     End of self-consistent calculation

          k = 0.0000 0.0000 0.0000 (  4025 PWs)   bands (ev):

    -6.1717  -5.4410  -4.2626  -2.9421  -1.6795  -0.4371  -0.2083

          k = 0.0000-0.5000 0.0000 (  4030 PWs)   bands (ev):

    -3.6807  -3.6601  -3.0605  -3.0415  -2.5103  -0.5814  -0.1730

          k =-0.5000-0.5000 0.0000 (  4048 PWs)   bands (ev):

    -2.1591  -2.1590  -1.2512  -1.2511   0.3534   0.3539   0.6898

     the Fermi energy is    -3.0043 ev

!    total energy              =      -8.97078613 Ry
     Harris-Foulkes estimate   =      -8.97077773 Ry
     estimated scf accuracy    <       0.00000062 Ry

     The total energy is the sum of the following terms:

     one-electron contribution =      42.97024426 Ry
     hartree contribution      =     -21.03480063 Ry
     xc contribution           =      -8.34130301 Ry
     ewald contribution        =     -22.56020496 Ry
     solvation energy (RISM)   =       0.00141960 Ry
     smearing contrib. (-TS)   =      -0.00614139 Ry

     convergence has been achieved in  22 iterations

     Writing output data file Li-EtOH.save

     init_run     :      2.91s CPU      2.97s WALL (       1 calls)
     electrons    :     24.72s CPU     25.84s WALL (       1 calls)

     Called by init_run:
     wfcinit      :      0.04s CPU      0.05s WALL (       1 calls)
     potinit      :      2.36s CPU      2.41s WALL (       1 calls)

     Called by electrons:
     c_bands      :      0.77s CPU      0.80s WALL (      22 calls)
     sum_band     :      0.66s CPU      0.69s WALL (      22 calls)
     v_of_rho     :      0.92s CPU      0.92s WALL (      23 calls)
     newd         :      0.46s CPU      0.48s WALL (      23 calls)
     mix_rho      :      0.08s CPU      0.08s WALL (      22 calls)

     Called by c_bands:
     init_us_2    :      0.02s CPU      0.02s WALL (     135 calls)
     cegterg      :      0.74s CPU      0.76s WALL (      66 calls)

     Called by sum_band:
     sum_band:bec :      0.00s CPU      0.00s WALL (      66 calls)
     addusdens    :      0.43s CPU      0.44s WALL (      22 calls)

     Called by *egterg:
     h_psi        :      0.61s CPU      0.64s WALL (     214 calls)
     s_psi        :      0.04s CPU      0.03s WALL (     214 calls)
     g_psi        :      0.00s CPU      0.00s WALL (     145 calls)
     cdiaghg      :      0.02s CPU      0.02s WALL (     211 calls)

     Called by h_psi:
     h_psi:pot    :      0.61s CPU      0.63s WALL (     214 calls)
     h_psi:calbec :      0.06s CPU      0.06s WALL (     214 calls)
     vloc_psi     :      0.52s CPU      0.54s WALL (     214 calls)
     add_vuspsi   :      0.03s CPU      0.03s WALL (     214 calls)

     General routines
     calbec       :      0.08s CPU      0.08s WALL (     280 calls)
     fft          :      0.41s CPU      0.43s WALL (     434 calls)
     ffts         :      0.02s CPU      0.02s WALL (      45 calls)
     fftw         :      0.56s CPU      0.57s WALL (    2816 calls)
     fftc         :      0.02s CPU      0.02s WALL (      46 calls)
     interpolate  :      0.05s CPU      0.05s WALL (      45 calls)
     davcio       :      0.00s CPU      0.00s WALL (       3 calls)

     Parallel routines
     fft_scatter  :      1.37s CPU      1.41s WALL (    8508 calls)

     RISM routines
     1DRISM_pre   :      0.00s CPU      0.00s WALL (       1 calls)
     1DRISM_run   :      3.09s CPU      3.10s WALL (       1 calls)
     3DRISM_pre   :      0.96s CPU      0.97s WALL (       1 calls)
     3DRISM_run   :     23.04s CPU     24.13s WALL (      23 calls)
     3DRISM_vsol  :      0.02s CPU      0.02s WALL (      23 calls)
     3DRISM_esol  :      0.00s CPU      0.00s WALL (      23 calls)

     PWSCF        :    30.88s CPU        32.15s WALL


   This run was terminated on:  18:51:13   6Apr2017            

=------------------------------------------------------------------------------=
   JOB DONE.
=------------------------------------------------------------------------------=
